/*--------------------------------*- C++ -*----------------------------------*\
| =========                 |                                                 |
| \\      /  F ield         | OpenFOAM: The Open Source CFD Toolbox           |
|  \\    /   O peration     | Version:  v2012                                 |
|   \\  /    A nd           | Website:  www.openfoam.com                      |
|    \\/     M anipulation  |                                                 |
\*---------------------------------------------------------------------------*/
FoamFile
{
    version     2.0;
    format      ascii;
    class       volScalarField;
    location    "50";
    object      aU;
}
// * * * * * * * * * * * * * * * * * * * * * * * * * * * * * * * * * * * * * //

dimensions      [0 0 0 0 0 0 0];


internalField   nonuniform List<scalar> 
65536
(
1.11158e-05
5.79219e-06
7.5631e-06
7.85534e-06
1.12071e-05
1.28741e-05
1.53041e-05
1.73474e-05
1.95739e-05
2.16002e-05
2.3827e-05
2.57468e-05
2.79639e-05
2.97983e-05
3.19459e-05
3.37259e-05
3.57574e-05
3.74913e-05
3.93867e-05
4.10623e-05
4.282e-05
4.4416e-05
4.60414e-05
4.75372e-05
4.90347e-05
5.04149e-05
5.17853e-05
5.30402e-05
5.42812e-05
5.54057e-05
5.65134e-05
5.75052e-05
5.84761e-05
5.93344e-05
6.01659e-05
6.0891e-05
6.15822e-05
6.21749e-05
6.27266e-05
6.31886e-05
6.36031e-05
6.39367e-05
6.42177e-05
6.44262e-05
6.45785e-05
6.46659e-05
6.46953e-05
6.46667e-05
6.458e-05
6.44415e-05
6.42458e-05
6.40042e-05
6.37074e-05
6.337e-05
6.29803e-05
6.25551e-05
6.20809e-05
6.15764e-05
6.10264e-05
6.0451e-05
5.9834e-05
5.91963e-05
5.85212e-05
5.78296e-05
5.71051e-05
5.63679e-05
5.56024e-05
5.48277e-05
5.40292e-05
5.32245e-05
5.24008e-05
5.15733e-05
5.07313e-05
4.98879e-05
4.90341e-05
4.81809e-05
4.73214e-05
4.64641e-05
4.56041e-05
4.47478e-05
4.38919e-05
4.30413e-05
4.21937e-05
4.13527e-05
4.0517e-05
3.96891e-05
3.88683e-05
3.80563e-05
3.7253e-05
3.64594e-05
3.56756e-05
3.49024e-05
3.41399e-05
3.33886e-05
3.26487e-05
3.19204e-05
3.12041e-05
3.04998e-05
2.98077e-05
2.91278e-05
2.84604e-05
2.78053e-05
2.71626e-05
2.65323e-05
2.59145e-05
2.53089e-05
2.47156e-05
2.41344e-05
2.35654e-05
2.30082e-05
2.24629e-05
2.19292e-05
2.14071e-05
2.08964e-05
2.03968e-05
1.99083e-05
1.94306e-05
1.89635e-05
1.8507e-05
1.80607e-05
1.76244e-05
1.71981e-05
1.67814e-05
1.63743e-05
1.59764e-05
1.55876e-05
1.52076e-05
1.48364e-05
1.44736e-05
1.41192e-05
1.37728e-05
1.34344e-05
1.31037e-05
1.27806e-05
1.24648e-05
1.21562e-05
1.18546e-05
1.15598e-05
1.12718e-05
1.09902e-05
1.0715e-05
1.0446e-05
1.0183e-05
9.92598e-06
9.67468e-06
9.429e-06
9.18881e-06
8.95398e-06
8.72437e-06
8.49986e-06
8.28035e-06
8.0657e-06
7.85582e-06
7.6506e-06
7.44992e-06
7.2537e-06
7.06184e-06
6.87424e-06
6.69082e-06
6.5115e-06
6.33619e-06
6.16481e-06
5.99729e-06
5.83356e-06
5.67355e-06
5.51718e-06
5.36441e-06
5.21517e-06
5.06939e-06
4.92703e-06
4.78803e-06
4.65233e-06
4.51989e-06
4.39066e-06
4.2646e-06
4.14165e-06
4.02177e-06
3.90493e-06
3.79108e-06
3.68018e-06
3.5722e-06
3.46709e-06
3.36483e-06
3.26537e-06
3.16867e-06
3.07472e-06
2.98347e-06
2.89489e-06
2.80894e-06
2.72559e-06
2.64482e-06
2.56657e-06
2.49083e-06
2.41756e-06
2.34671e-06
2.27826e-06
2.21217e-06
2.1484e-06
2.0869e-06
2.02765e-06
1.97059e-06
1.91568e-06
1.86288e-06
1.81215e-06
1.76342e-06
1.71666e-06
1.6718e-06
1.62881e-06
1.58761e-06
1.54817e-06
1.51041e-06
1.47429e-06
1.43974e-06
1.40669e-06
1.3751e-06
1.34489e-06
1.31601e-06
1.28838e-06
1.26195e-06
1.23664e-06
1.2124e-06
1.18917e-06
1.16687e-06
1.14544e-06
1.12483e-06
1.10497e-06
1.08579e-06
1.06724e-06
1.04927e-06
1.03181e-06
1.01481e-06
9.98217e-07
9.81982e-07
9.66055e-07
9.5039e-07
9.34942e-07
9.19672e-07
9.0454e-07
8.89509e-07
8.74547e-07
8.59623e-07
8.44708e-07
8.29779e-07
8.14812e-07
7.99788e-07
7.84691e-07
7.69506e-07
7.54222e-07
7.3883e-07
7.23325e-07
7.07702e-07
6.91961e-07
6.76102e-07
6.60129e-07
6.44046e-07
6.27863e-07
6.11586e-07
5.95229e-07
5.78802e-07
5.62321e-07
5.458e-07
5.29256e-07
5.12706e-07
4.9617e-07
4.79665e-07
4.63213e-07
4.46833e-07
4.30545e-07
4.14372e-07
3.98332e-07
3.82447e-07
3.66738e-07
3.51224e-07
3.35924e-07
3.20857e-07
3.06041e-07
2.91494e-07
2.77233e-07
2.63272e-07
2.49627e-07
2.3631e-07
2.23335e-07
2.10712e-07
1.98452e-07
1.86564e-07
1.75056e-07
1.63936e-07
1.5321e-07
1.42883e-07
1.3296e-07
1.23446e-07
1.14343e-07
1.05656e-07
9.73871e-08
8.95402e-08
8.21192e-08
7.51288e-08
6.8575e-08
6.24657e-08
5.68108e-08
5.1623e-08
4.69179e-08
4.2714e-08
3.90314e-08
3.589e-08
3.3305e-08
3.12818e-08
2.98096e-08
2.88573e-08
2.83728e-08
2.82875e-08
2.85247e-08
2.90074e-08
2.96655e-08
3.0439e-08
3.12793e-08
3.21485e-08
3.30182e-08
3.38678e-08
3.4683e-08
3.54544e-08
3.61765e-08
3.6847e-08
3.74659e-08
3.80351e-08
3.85582e-08
3.90398e-08
3.94854e-08
3.99017e-08
4.02958e-08
4.06753e-08
4.10483e-08
4.14233e-08
4.18089e-08
4.2214e-08
4.26475e-08
4.3118e-08
4.36342e-08
4.42043e-08
4.48359e-08
4.55363e-08
4.63117e-08
4.71677e-08
4.81088e-08
4.91385e-08
5.02589e-08
5.14713e-08
5.27753e-08
5.41698e-08
5.5652e-08
5.72184e-08
5.88641e-08
6.05834e-08
6.23696e-08
6.42151e-08
6.61118e-08
6.80508e-08
7.00228e-08
7.2018e-08
7.40263e-08
7.60376e-08
7.80416e-08
8.00277e-08
8.1986e-08
8.39061e-08
8.57784e-08
8.75933e-08
8.93418e-08
9.10153e-08
9.26057e-08
9.41056e-08
9.55079e-08
9.68067e-08
9.79962e-08
9.90719e-08
1.0003e-07
1.00866e-07
1.01579e-07
1.02166e-07
1.02626e-07
1.0296e-07
1.03167e-07
1.03248e-07
1.03206e-07
1.03043e-07
1.02762e-07
1.02365e-07
1.01858e-07
1.01245e-07
1.0053e-07
9.97191e-08
9.88174e-08
9.78306e-08
9.67648e-08
9.56258e-08
9.44199e-08
9.3153e-08
9.18313e-08
9.04608e-08
8.90473e-08
8.75965e-08
8.61141e-08
8.46053e-08
8.30751e-08
8.15285e-08
7.99699e-08
7.84036e-08
7.68335e-08
7.52632e-08
7.36962e-08
7.21355e-08
7.05838e-08
6.90437e-08
6.75173e-08
6.60067e-08
6.45135e-08
6.30393e-08
6.15854e-08
6.01527e-08
5.87423e-08
5.73549e-08
5.59911e-08
5.46513e-08
5.33359e-08
5.20451e-08
5.07791e-08
4.95378e-08
4.83212e-08
4.71294e-08
4.5962e-08
4.48189e-08
4.36999e-08
4.26046e-08
4.15328e-08
4.04842e-08
3.94583e-08
3.84549e-08
3.74735e-08
3.65137e-08
3.55751e-08
3.46574e-08
3.37601e-08
3.28828e-08
3.2025e-08
3.11864e-08
3.03666e-08
2.9565e-08
2.87815e-08
2.80154e-08
2.72664e-08
2.65342e-08
2.58182e-08
2.51182e-08
2.44337e-08
2.37644e-08
2.31099e-08
2.24698e-08
2.18437e-08
2.12313e-08
2.06323e-08
2.00463e-08
1.94729e-08
1.89118e-08
1.83628e-08
1.78254e-08
1.72993e-08
1.67843e-08
1.62801e-08
1.57862e-08
1.53026e-08
1.48287e-08
1.43646e-08
1.39096e-08
1.34639e-08
1.30266e-08
1.25984e-08
1.21777e-08
1.17661e-08
1.1361e-08
1.09651e-08
1.05746e-08
1.01938e-08
9.81677e-09
9.45057e-09
9.08588e-09
8.73415e-09
8.38048e-09
8.04343e-09
7.69922e-09
7.37769e-09
7.04095e-09
6.73666e-09
6.40473e-09
6.12067e-09
5.78992e-09
5.53098e-09
5.19636e-09
4.96994e-09
4.62473e-09
4.44123e-09
4.07717e-09
3.94939e-09
3.55903e-09
3.4968e-09
3.08252e-09
3.07109e-09
2.67449e-09
2.59519e-09
2.39326e-09
1.73612e-09
2.59775e-09
9.15192e-10
7.7406e-07
7.4516e-06
3.74695e-06
5.20699e-06
4.56388e-06
4.7915e-06
4.60598e-06
4.63356e-06
4.48245e-06
4.48435e-06
4.30829e-06
4.30755e-06
4.11303e-06
4.10041e-06
3.90587e-06
3.87046e-06
3.6886e-06
3.62556e-06
3.45987e-06
3.37069e-06
3.21817e-06
3.10831e-06
2.9635e-06
2.83968e-06
2.69761e-06
2.56576e-06
2.4234e-06
2.28788e-06
2.14433e-06
2.00808e-06
1.8641e-06
1.72918e-06
1.5866e-06
1.45475e-06
1.316e-06
1.18921e-06
1.05735e-06
9.38511e-07
8.18026e-07
7.12437e-07
6.11663e-07
5.306e-07
4.66767e-07
4.31571e-07
4.273e-07
4.50404e-07
4.9871e-07
5.5789e-07
6.2926e-07
7.00678e-07
7.77272e-07
8.49753e-07
9.2413e-07
9.93026e-07
1.06202e-06
1.12529e-06
1.18749e-06
1.24425e-06
1.29902e-06
1.34892e-06
1.39608e-06
1.43907e-06
1.4787e-06
1.5149e-06
1.54726e-06
1.57688e-06
1.60234e-06
1.62568e-06
1.64471e-06
1.6621e-06
1.67521e-06
1.68703e-06
1.69474e-06
1.70142e-06
1.70427e-06
1.70623e-06
1.70473e-06
1.70244e-06
1.69709e-06
1.69101e-06
1.68229e-06
1.67287e-06
1.66122e-06
1.64891e-06
1.63476e-06
1.61998e-06
1.60372e-06
1.58689e-06
1.56887e-06
1.55035e-06
1.53092e-06
1.51106e-06
1.49052e-06
1.46963e-06
1.44825e-06
1.42661e-06
1.40466e-06
1.38252e-06
1.3602e-06
1.33778e-06
1.3153e-06
1.29279e-06
1.27031e-06
1.24788e-06
1.22555e-06
1.20333e-06
1.18128e-06
1.15938e-06
1.13769e-06
1.11621e-06
1.09497e-06
1.07396e-06
1.05322e-06
1.03274e-06
1.01253e-06
9.92602e-07
9.72953e-07
9.5358e-07
9.34486e-07
9.15664e-07
8.97112e-07
8.78818e-07
8.60778e-07
8.42978e-07
8.2541e-07
8.0806e-07
7.90915e-07
7.7396e-07
7.57182e-07
7.40564e-07
7.24092e-07
7.07748e-07
6.91519e-07
6.75387e-07
6.59338e-07
6.43357e-07
6.27428e-07
6.1154e-07
5.95678e-07
5.79831e-07
5.63988e-07
5.48141e-07
5.3228e-07
5.16399e-07
5.00493e-07
4.84559e-07
4.68595e-07
4.52602e-07
4.36581e-07
4.20538e-07
4.04479e-07
3.88415e-07
3.72356e-07
3.56319e-07
3.40322e-07
3.24388e-07
3.08543e-07
2.92818e-07
2.77251e-07
2.61886e-07
2.46774e-07
2.31975e-07
2.17564e-07
2.03625e-07
1.90262e-07
1.77596e-07
1.65773e-07
1.5496e-07
1.45347e-07
1.37138e-07
1.30539e-07
1.2573e-07
1.22834e-07
1.2189e-07
1.22837e-07
1.25517e-07
1.29703e-07
1.35135e-07
1.41544e-07
1.48682e-07
1.56327e-07
1.64288e-07
1.72405e-07
1.80544e-07
1.88592e-07
1.96455e-07
2.04054e-07
2.11323e-07
2.18203e-07
2.24646e-07
2.3061e-07
2.36058e-07
2.4096e-07
2.45288e-07
2.49021e-07
2.52139e-07
2.54628e-07
2.56475e-07
2.57674e-07
2.58217e-07
2.58105e-07
2.57336e-07
2.55916e-07
2.53852e-07
2.51153e-07
2.47832e-07
2.43906e-07
2.39392e-07
2.34313e-07
2.28691e-07
2.22555e-07
2.15932e-07
2.08855e-07
2.01358e-07
1.93478e-07
1.85254e-07
1.76729e-07
1.67946e-07
1.58953e-07
1.49801e-07
1.40545e-07
1.31242e-07
1.21958e-07
1.12764e-07
1.0374e-07
9.49788e-08
8.6588e-08
7.86963e-08
7.14574e-08
6.50521e-08
5.96845e-08
5.55616e-08
5.28537e-08
5.1639e-08
5.18619e-08
5.33353e-08
5.57897e-08
5.89356e-08
6.2509e-08
6.62904e-08
7.01067e-08
7.3825e-08
7.73442e-08
8.0588e-08
8.34984e-08
8.60321e-08
8.81566e-08
8.98484e-08
9.1091e-08
9.1874e-08
9.21917e-08
9.20427e-08
9.14293e-08
9.03572e-08
8.88346e-08
8.68727e-08
8.44848e-08
8.16862e-08
7.84942e-08
7.49277e-08
7.1007e-08
6.67537e-08
6.21906e-08
5.73414e-08
5.22304e-08
4.68829e-08
4.13242e-08
3.55804e-08
2.96772e-08
2.36407e-08
1.74962e-08
1.12692e-08
4.98485e-09
1.34034e-09
7.66374e-09
1.39775e-08
2.02558e-08
2.64774e-08
3.2622e-08
3.86707e-08
4.46057e-08
5.04103e-08
5.60692e-08
6.15681e-08
6.68941e-08
7.20358e-08
7.69826e-08
8.17256e-08
8.62567e-08
9.05694e-08
9.46581e-08
9.85183e-08
1.02147e-07
1.05542e-07
1.08701e-07
1.11625e-07
1.14313e-07
1.16768e-07
1.18992e-07
1.20987e-07
1.22756e-07
1.24304e-07
1.25636e-07
1.26755e-07
1.27669e-07
1.28382e-07
1.28901e-07
1.29232e-07
1.29381e-07
1.29355e-07
1.29162e-07
1.28807e-07
1.28297e-07
1.2764e-07
1.26841e-07
1.25909e-07
1.24848e-07
1.23666e-07
1.22369e-07
1.20964e-07
1.19455e-07
1.17849e-07
1.16151e-07
1.14367e-07
1.12502e-07
1.10562e-07
1.0855e-07
1.06473e-07
1.04334e-07
1.02138e-07
9.98904e-08
9.75951e-08
9.52569e-08
9.28804e-08
9.04704e-08
8.80321e-08
8.55707e-08
8.3092e-08
8.06022e-08
7.81081e-08
7.56171e-08
7.31378e-08
7.06795e-08
6.82528e-08
6.58695e-08
6.35431e-08
6.12885e-08
5.91221e-08
5.70624e-08
5.51288e-08
5.33424e-08
5.17249e-08
5.02979e-08
4.90823e-08
4.80967e-08
4.73564e-08
4.68719e-08
4.66481e-08
4.66834e-08
4.69697e-08
4.74927e-08
4.82331e-08
4.91675e-08
5.02698e-08
5.15128e-08
5.28689e-08
5.43112e-08
5.5814e-08
5.73533e-08
5.8907e-08
6.04552e-08
6.19796e-08
6.34643e-08
6.4895e-08
6.62595e-08
6.75469e-08
6.87482e-08
6.98557e-08
7.08633e-08
7.17659e-08
7.25598e-08
7.32425e-08
7.38123e-08
7.42686e-08
7.46116e-08
7.48426e-08
7.49633e-08
7.49763e-08
7.48846e-08
7.46919e-08
7.44024e-08
7.40206e-08
7.35513e-08
7.29996e-08
7.23709e-08
7.16706e-08
7.09043e-08
7.00776e-08
6.9196e-08
6.8265e-08
6.729e-08
6.62763e-08
6.52289e-08
6.41528e-08
6.30524e-08
6.19323e-08
6.07966e-08
5.96492e-08
5.84935e-08
5.73331e-08
5.61708e-08
5.50096e-08
5.38519e-08
5.26999e-08
5.15558e-08
5.04213e-08
4.9298e-08
4.81872e-08
4.70902e-08
4.6008e-08
4.49415e-08
4.38913e-08
4.28581e-08
4.18422e-08
4.08442e-08
3.98641e-08
3.89023e-08
3.79588e-08
3.70336e-08
3.61268e-08
3.52383e-08
3.4368e-08
3.35157e-08
3.26812e-08
3.18644e-08
3.1065e-08
3.02829e-08
2.95176e-08
2.8769e-08
2.80369e-08
2.73208e-08
2.66205e-08
2.59357e-08
2.52662e-08
2.46115e-08
2.39715e-08
2.33458e-08
2.27341e-08
2.21361e-08
2.15514e-08
2.09799e-08
2.04212e-08
1.9875e-08
1.93411e-08
1.8819e-08
1.83087e-08
1.78097e-08
1.73219e-08
1.68449e-08
1.63784e-08
1.59223e-08
1.54763e-08
1.504e-08
1.46134e-08
1.41961e-08
1.37878e-08
1.33884e-08
1.29977e-08
1.26154e-08
1.22413e-08
1.18751e-08
1.15169e-08
1.1166e-08
1.08228e-08
1.04865e-08
1.01577e-08
9.83517e-09
9.5202e-09
9.21067e-09
8.90897e-09
8.61174e-09
8.32299e-09
8.03732e-09
7.76134e-09
7.48644e-09
7.22335e-09
6.95833e-09
6.70863e-09
6.45237e-09
6.21713e-09
5.96821e-09
5.74925e-09
5.50571e-09
5.306e-09
5.06503e-09
4.88907e-09
4.64672e-09
4.501e-09
4.25161e-09
4.1451e-09
3.88073e-09
3.82507e-09
3.53416e-09
3.54415e-09
3.20684e-09
3.30484e-09
2.87113e-09
3.12141e-09
2.41228e-09
3.1074e-09
1.42265e-09
4.65782e-09
6.26022e-06
5.51072e-06
4.11425e-06
4.78898e-06
4.10732e-06
4.52758e-06
4.09038e-06
4.41511e-06
4.02472e-06
4.30566e-06
3.93396e-06
4.16352e-06
3.8212e-06
3.98366e-06
3.68387e-06
3.77276e-06
3.51955e-06
3.53926e-06
3.32716e-06
3.28989e-06
3.10784e-06
3.02951e-06
2.8654e-06
2.76158e-06
2.60558e-06
2.4887e-06
2.33456e-06
2.21297e-06
2.05786e-06
1.93629e-06
1.77987e-06
1.6606e-06
1.50407e-06
1.38809e-06
1.23346e-06
1.12132e-06
9.70952e-07
8.63329e-07
7.19898e-07
6.18151e-07
4.85651e-07
3.9379e-07
2.83726e-07
2.20566e-07
1.87675e-07
2.13078e-07
2.86471e-07
3.56337e-07
4.50465e-07
5.24523e-07
6.16555e-07
6.87138e-07
7.72583e-07
8.37637e-07
9.15281e-07
9.74109e-07
1.04357e-06
1.09597e-06
1.15718e-06
1.20321e-06
1.25625e-06
1.29608e-06
1.34116e-06
1.37505e-06
1.41247e-06
1.44069e-06
1.47087e-06
1.49368e-06
1.5171e-06
1.53478e-06
1.55197e-06
1.5648e-06
1.57631e-06
1.58457e-06
1.59098e-06
1.59499e-06
1.59682e-06
1.5969e-06
1.59471e-06
1.59121e-06
1.58547e-06
1.57874e-06
1.56993e-06
1.56034e-06
1.54889e-06
1.53681e-06
1.52311e-06
1.50888e-06
1.4933e-06
1.47727e-06
1.46015e-06
1.44264e-06
1.42427e-06
1.40559e-06
1.38626e-06
1.36668e-06
1.34663e-06
1.32641e-06
1.30587e-06
1.28522e-06
1.26439e-06
1.24351e-06
1.22256e-06
1.20163e-06
1.18072e-06
1.15988e-06
1.13913e-06
1.1185e-06
1.09801e-06
1.07769e-06
1.05756e-06
1.03762e-06
1.0179e-06
9.98401e-07
9.79137e-07
9.60108e-07
9.41324e-07
9.22781e-07
9.04483e-07
8.86423e-07
8.68602e-07
8.51009e-07
8.3364e-07
8.16484e-07
7.99532e-07
7.82771e-07
7.6619e-07
7.49775e-07
7.33513e-07
7.17389e-07
7.01388e-07
6.85495e-07
6.69695e-07
6.53974e-07
6.38317e-07
6.2271e-07
6.0714e-07
5.91594e-07
5.76061e-07
5.6053e-07
5.44991e-07
5.29438e-07
5.13863e-07
4.98262e-07
4.82632e-07
4.66971e-07
4.5128e-07
4.35563e-07
4.19825e-07
4.04073e-07
3.8832e-07
3.72579e-07
3.56867e-07
3.41205e-07
3.2562e-07
3.10141e-07
2.94803e-07
2.7965e-07
2.64731e-07
2.50105e-07
2.35842e-07
2.22022e-07
2.08741e-07
1.96113e-07
1.84268e-07
1.73357e-07
1.63546e-07
1.55017e-07
1.47951e-07
1.42515e-07
1.38837e-07
1.36985e-07
1.36949e-07
1.38638e-07
1.4189e-07
1.46497e-07
1.52227e-07
1.58848e-07
1.66142e-07
1.73914e-07
1.81992e-07
1.90229e-07
1.98498e-07
2.06692e-07
2.14721e-07
2.22505e-07
2.29978e-07
2.3708e-07
2.43762e-07
2.4998e-07
2.55695e-07
2.60873e-07
2.65487e-07
2.69511e-07
2.72924e-07
2.7571e-07
2.77853e-07
2.79343e-07
2.80172e-07
2.80337e-07
2.79836e-07
2.78671e-07
2.76846e-07
2.7437e-07
2.71252e-07
2.67508e-07
2.63153e-07
2.58206e-07
2.5269e-07
2.4663e-07
2.40052e-07
2.32986e-07
2.25466e-07
2.17525e-07
2.092e-07
2.00532e-07
1.91562e-07
1.82334e-07
1.72895e-07
1.63295e-07
1.53584e-07
1.4382e-07
1.34062e-07
1.24374e-07
1.14829e-07
1.05506e-07
9.6495e-08
8.79022e-08
7.98505e-08
7.24853e-08
6.59751e-08
6.05058e-08
5.62625e-08
5.33924e-08
5.19564e-08
5.18931e-08
5.30214e-08
5.50834e-08
5.78008e-08
6.09177e-08
6.42194e-08
6.7536e-08
7.07365e-08
7.37214e-08
7.6416e-08
7.87642e-08
8.07246e-08
8.2267e-08
8.33704e-08
8.40207e-08
8.421e-08
8.39356e-08
8.31987e-08
8.20046e-08
8.03617e-08
7.82816e-08
7.57782e-08
7.2868e-08
6.957e-08
6.5905e-08
6.18961e-08
5.75685e-08
5.29501e-08
4.80716e-08
4.29685e-08
3.76827e-08
3.22691e-08
2.68072e-08
2.14332e-08
1.64263e-08
1.24508e-08
1.09004e-08
1.27984e-08
1.70665e-08
2.23888e-08
2.81538e-08
3.41045e-08
4.01168e-08
4.61198e-08
5.20673e-08
5.79251e-08
6.36666e-08
6.927e-08
7.47164e-08
7.99899e-08
8.50766e-08
8.99644e-08
9.46429e-08
9.91034e-08
1.03338e-07
1.07342e-07
1.11109e-07
1.14636e-07
1.17921e-07
1.20961e-07
1.23758e-07
1.26311e-07
1.28621e-07
1.30692e-07
1.32525e-07
1.34124e-07
1.35494e-07
1.36639e-07
1.37565e-07
1.38276e-07
1.3878e-07
1.39082e-07
1.39188e-07
1.39107e-07
1.38843e-07
1.38405e-07
1.37799e-07
1.37033e-07
1.36113e-07
1.35047e-07
1.3384e-07
1.32501e-07
1.31035e-07
1.2945e-07
1.2775e-07
1.25943e-07
1.24035e-07
1.2203e-07
1.19936e-07
1.17756e-07
1.15497e-07
1.13163e-07
1.10759e-07
1.0829e-07
1.05761e-07
1.03176e-07
1.00539e-07
9.78561e-08
9.51307e-08
9.23679e-08
8.95724e-08
8.67494e-08
8.39044e-08
8.10435e-08
7.81732e-08
7.53008e-08
7.24346e-08
6.9584e-08
6.67597e-08
6.39741e-08
6.12413e-08
5.85775e-08
5.60014e-08
5.35342e-08
5.11996e-08
4.90241e-08
4.70364e-08
4.52665e-08
4.37448e-08
4.24999e-08
4.15566e-08
4.09333e-08
4.06396e-08
4.0675e-08
4.10284e-08
4.16788e-08
4.25974e-08
4.37504e-08
4.51009e-08
4.66115e-08
4.82461e-08
4.99707e-08
5.17539e-08
5.35677e-08
5.53871e-08
5.71899e-08
5.89568e-08
6.06711e-08
6.23183e-08
6.3886e-08
6.53638e-08
6.67428e-08
6.80159e-08
6.91774e-08
7.02229e-08
7.11492e-08
7.19543e-08
7.26371e-08
7.31976e-08
7.36366e-08
7.39558e-08
7.41574e-08
7.42445e-08
7.42206e-08
7.40899e-08
7.3857e-08
7.35266e-08
7.31041e-08
7.2595e-08
7.20049e-08
7.13396e-08
7.06049e-08
6.98067e-08
6.89509e-08
6.80432e-08
6.70892e-08
6.60944e-08
6.5064e-08
6.40031e-08
6.29164e-08
6.18087e-08
6.0684e-08
5.95465e-08
5.83998e-08
5.72474e-08
5.60923e-08
5.49375e-08
5.37856e-08
5.26389e-08
5.14995e-08
5.03692e-08
4.92497e-08
4.81423e-08
4.70484e-08
4.5969e-08
4.49049e-08
4.38569e-08
4.28257e-08
4.18116e-08
4.08151e-08
3.98365e-08
3.8876e-08
3.79336e-08
3.70094e-08
3.61034e-08
3.52157e-08
3.4346e-08
3.34942e-08
3.26602e-08
3.18438e-08
3.10447e-08
3.02627e-08
2.94976e-08
2.87492e-08
2.8017e-08
2.73009e-08
2.66006e-08
2.59157e-08
2.52459e-08
2.45911e-08
2.39508e-08
2.33248e-08
2.27127e-08
2.21143e-08
2.15293e-08
2.09573e-08
2.03981e-08
1.98514e-08
1.93169e-08
1.87943e-08
1.82834e-08
1.77838e-08
1.72953e-08
1.68175e-08
1.63504e-08
1.58935e-08
1.54467e-08
1.50096e-08
1.45821e-08
1.41638e-08
1.37547e-08
1.33543e-08
1.29626e-08
1.25791e-08
1.2204e-08
1.18366e-08
1.14772e-08
1.11251e-08
1.07807e-08
1.0443e-08
1.01128e-08
9.78882e-09
9.47233e-09
9.1612e-09
8.85787e-09
8.5589e-09
8.26837e-09
7.98078e-09
7.70287e-09
7.42586e-09
7.16069e-09
6.89332e-09
6.64139e-09
6.38252e-09
6.14493e-09
5.89307e-09
5.67177e-09
5.42487e-09
5.22306e-09
4.97825e-09
4.80091e-09
4.55411e-09
4.40881e-09
4.15426e-09
4.05225e-09
3.78188e-09
3.73983e-09
3.44215e-09
3.48566e-09
3.14149e-09
3.31525e-09
2.87897e-09
3.28415e-09
2.60832e-09
3.63865e-09
2.2556e-09
3.0959e-09
3.43725e-06
5.30062e-06
4.22075e-06
5.0687e-06
4.57004e-06
4.89077e-06
4.55058e-06
4.77094e-06
4.40975e-06
4.63213e-06
4.2393e-06
4.45035e-06
4.06286e-06
4.22975e-06
3.88299e-06
3.98349e-06
3.69517e-06
3.72416e-06
3.49324e-06
3.46016e-06
3.27295e-06
3.19539e-06
3.03388e-06
2.93036e-06
2.77898e-06
2.66416e-06
2.51302e-06
2.39618e-06
2.24129e-06
2.12722e-06
1.96899e-06
1.85965e-06
1.70098e-06
1.59704e-06
1.44191e-06
1.34386e-06
1.19691e-06
1.10596e-06
9.7288e-07
8.91934e-07
7.80845e-07
7.15695e-07
6.38766e-07
5.98835e-07
5.6987e-07
5.63475e-07
5.84568e-07
6.08348e-07
6.63383e-07
7.05028e-07
7.75416e-07
8.24329e-07
8.98508e-07
9.48448e-07
1.02051e-06
1.0682e-06
1.13516e-06
1.17892e-06
1.23922e-06
1.27827e-06
1.33111e-06
1.36513e-06
1.41019e-06
1.43912e-06
1.47637e-06
1.50028e-06
1.52994e-06
1.54894e-06
1.57142e-06
1.58567e-06
1.60149e-06
1.61117e-06
1.62091e-06
1.62623e-06
1.63053e-06
1.63174e-06
1.63122e-06
1.62859e-06
1.62386e-06
1.61772e-06
1.60935e-06
1.60004e-06
1.58857e-06
1.57646e-06
1.56237e-06
1.54784e-06
1.53157e-06
1.51499e-06
1.49696e-06
1.4787e-06
1.45927e-06
1.43967e-06
1.41917e-06
1.39856e-06
1.37729e-06
1.35596e-06
1.3342e-06
1.31242e-06
1.2904e-06
1.26841e-06
1.24633e-06
1.22435e-06
1.20239e-06
1.1806e-06
1.15892e-06
1.13745e-06
1.11618e-06
1.09517e-06
1.07441e-06
1.05395e-06
1.03378e-06
1.01393e-06
9.94411e-07
9.75225e-07
9.56383e-07
9.37884e-07
9.19731e-07
9.0192e-07
8.84448e-07
8.67308e-07
8.50492e-07
8.33989e-07
8.17788e-07
8.01873e-07
7.86232e-07
7.70847e-07
7.55702e-07
7.40778e-07
7.26057e-07
7.1152e-07
6.97148e-07
6.82923e-07
6.68824e-07
6.54834e-07
6.40936e-07
6.27111e-07
6.13345e-07
5.99621e-07
5.85928e-07
5.72252e-07
5.58583e-07
5.44912e-07
5.31234e-07
5.17542e-07
5.03836e-07
4.90114e-07
4.76379e-07
4.62637e-07
4.48896e-07
4.35166e-07
4.21462e-07
4.07802e-07
3.94207e-07
3.80702e-07
3.67316e-07
3.54085e-07
3.41046e-07
3.28243e-07
3.15725e-07
3.03548e-07
2.91772e-07
2.80463e-07
2.69692e-07
2.59538e-07
2.50078e-07
2.41397e-07
2.33576e-07
2.26691e-07
2.20813e-07
2.15999e-07
2.12289e-07
2.09701e-07
2.0823e-07
2.07847e-07
2.08498e-07
2.10107e-07
2.12581e-07
2.15817e-07
2.19702e-07
2.24121e-07
2.28962e-07
2.34114e-07
2.39472e-07
2.44941e-07
2.5043e-07
2.55857e-07
2.61146e-07
2.6623e-07
2.71048e-07
2.75543e-07
2.79668e-07
2.83376e-07
2.86631e-07
2.89396e-07
2.91642e-07
2.93344e-07
2.94479e-07
2.9503e-07
2.94983e-07
2.94328e-07
2.93058e-07
2.91169e-07
2.88663e-07
2.85543e-07
2.81816e-07
2.77491e-07
2.72583e-07
2.67108e-07
2.61085e-07
2.54536e-07
2.47487e-07
2.39965e-07
2.32001e-07
2.23628e-07
2.14882e-07
2.05801e-07
1.96426e-07
1.86799e-07
1.76968e-07
1.66979e-07
1.56886e-07
1.46743e-07
1.3661e-07
1.26553e-07
1.16644e-07
1.06964e-07
9.76071e-08
8.86821e-08
8.03199e-08
7.26766e-08
6.59366e-08
6.03072e-08
5.59977e-08
5.31752e-08
5.19066e-08
5.21161e-08
5.35923e-08
5.60437e-08
5.9165e-08
6.26829e-08
6.63738e-08
7.00636e-08
7.36203e-08
7.69444e-08
7.9962e-08
8.26178e-08
8.48711e-08
8.66924e-08
8.80609e-08
8.89632e-08
8.93917e-08
8.93435e-08
8.88203e-08
8.78273e-08
8.63729e-08
8.44685e-08
8.2128e-08
7.93677e-08
7.62062e-08
7.26638e-08
6.87628e-08
6.45276e-08
5.9984e-08
5.51604e-08
5.00873e-08
4.47992e-08
3.93358e-08
3.37469e-08
2.81019e-08
2.25146e-08
1.72112e-08
1.27378e-08
1.04055e-08
1.16755e-08
1.57205e-08
2.09817e-08
2.67198e-08
3.26423e-08
3.86157e-08
4.45671e-08
5.045e-08
5.62311e-08
6.18847e-08
6.73899e-08
7.27289e-08
7.78867e-08
8.28506e-08
8.76092e-08
9.21533e-08
9.64749e-08
1.00567e-07
1.04426e-07
1.08046e-07
1.11424e-07
1.1456e-07
1.17452e-07
1.201e-07
1.22505e-07
1.24669e-07
1.26596e-07
1.28287e-07
1.29747e-07
1.30979e-07
1.3199e-07
1.32784e-07
1.33367e-07
1.33745e-07
1.33924e-07
1.3391e-07
1.3371e-07
1.33331e-07
1.32778e-07
1.3206e-07
1.31181e-07
1.3015e-07
1.28973e-07
1.27655e-07
1.26203e-07
1.24623e-07
1.22921e-07
1.21103e-07
1.19174e-07
1.17138e-07
1.15002e-07
1.1277e-07
1.10447e-07
1.08036e-07
1.05542e-07
1.02969e-07
1.00321e-07
9.76006e-08
9.48118e-08
9.19579e-08
8.90419e-08
8.60672e-08
8.30367e-08
7.99538e-08
7.68217e-08
7.36439e-08
7.04243e-08
6.7167e-08
6.38769e-08
6.05593e-08
5.72209e-08
5.38693e-08
5.05137e-08
4.71658e-08
4.38398e-08
4.05538e-08
3.73311e-08
3.42019e-08
3.12061e-08
2.83961e-08
2.58413e-08
2.36301e-08
2.18686e-08
2.0669e-08
2.01234e-08
2.02705e-08
2.10767e-08
2.24482e-08
2.42633e-08
2.64025e-08
2.87643e-08
3.12679e-08
3.38514e-08
3.64673e-08
3.90792e-08
4.16586e-08
4.41827e-08
4.66334e-08
4.89957e-08
5.12576e-08
5.3409e-08
5.54417e-08
5.73489e-08
5.91255e-08
6.07672e-08
6.22711e-08
6.36352e-08
6.48585e-08
6.5941e-08
6.68832e-08
6.76866e-08
6.83534e-08
6.88865e-08
6.92893e-08
6.95658e-08
6.97203e-08
6.9758e-08
6.9684e-08
6.95039e-08
6.92235e-08
6.8849e-08
6.83865e-08
6.78422e-08
6.72225e-08
6.65337e-08
6.57818e-08
6.49731e-08
6.41135e-08
6.32087e-08
6.22643e-08
6.12857e-08
6.02777e-08
5.92453e-08
5.81929e-08
5.71247e-08
5.60446e-08
5.49562e-08
5.38628e-08
5.27674e-08
5.16727e-08
5.05811e-08
4.94949e-08
4.84161e-08
4.73463e-08
4.6287e-08
4.52397e-08
4.42053e-08
4.31848e-08
4.21791e-08
4.11888e-08
4.02145e-08
3.92565e-08
3.83153e-08
3.7391e-08
3.64838e-08
3.55937e-08
3.47209e-08
3.38653e-08
3.30268e-08
3.22053e-08
3.14006e-08
3.06127e-08
2.98413e-08
2.90861e-08
2.8347e-08
2.76238e-08
2.69161e-08
2.62237e-08
2.55463e-08
2.48836e-08
2.42354e-08
2.36014e-08
2.29813e-08
2.23748e-08
2.17815e-08
2.12013e-08
2.06339e-08
2.00789e-08
1.9536e-08
1.9005e-08
1.84856e-08
1.79776e-08
1.74806e-08
1.69944e-08
1.65187e-08
1.60532e-08
1.55977e-08
1.51519e-08
1.47157e-08
1.42886e-08
1.38705e-08
1.34611e-08
1.30603e-08
1.26676e-08
1.22831e-08
1.19062e-08
1.15371e-08
1.11751e-08
1.08205e-08
1.04726e-08
1.01317e-08
9.79683e-09
9.46887e-09
9.14629e-09
8.83056e-09
8.51936e-09
8.21526e-09
7.91452e-09
7.62152e-09
7.33026e-09
7.04802e-09
6.76514e-09
6.49356e-09
6.2177e-09
5.95708e-09
5.68654e-09
5.43771e-09
5.17014e-09
4.93486e-09
4.66695e-09
4.44837e-09
4.17519e-09
3.9786e-09
3.69269e-09
3.52679e-09
3.21664e-09
3.09545e-09
2.74298e-09
2.68912e-09
2.26556e-09
2.31622e-09
1.77606e-09
1.99482e-09
1.27943e-09
1.77717e-09
9.69549e-10
1.9763e-09
1.23985e-09
3.80126e-09
5.027e-06
4.98706e-06
4.38935e-06
4.82103e-06
4.23952e-06
4.70321e-06
4.15817e-06
4.62332e-06
4.06772e-06
4.5223e-06
3.96834e-06
4.37173e-06
3.85989e-06
4.17158e-06
3.73606e-06
3.93529e-06
3.58824e-06
3.67736e-06
3.4096e-06
3.40861e-06
3.198e-06
3.13549e-06
2.95726e-06
2.86072e-06
2.69526e-06
2.58525e-06
2.42077e-06
2.30942e-06
2.14116e-06
2.03378e-06
1.86175e-06
1.75964e-06
1.58655e-06
1.48942e-06
1.31938e-06
1.22694e-06
1.06486e-06
9.77666e-07
8.29562e-07
7.49911e-07
6.25029e-07
5.59096e-07
4.74867e-07
4.36605e-07
4.1833e-07
4.22336e-07
4.69635e-07
5.06403e-07
5.85857e-07
6.36583e-07
7.2433e-07
7.78371e-07
8.64398e-07
9.1693e-07
9.97256e-07
1.04609e-06
1.11898e-06
1.16316e-06
1.22779e-06
1.26698e-06
1.32302e-06
1.3572e-06
1.40459e-06
1.43386e-06
1.47281e-06
1.49731e-06
1.52821e-06
1.54806e-06
1.57147e-06
1.58679e-06
1.60336e-06
1.61427e-06
1.62468e-06
1.63133e-06
1.63628e-06
1.63888e-06
1.63903e-06
1.6378e-06
1.63379e-06
1.62902e-06
1.62142e-06
1.61344e-06
1.60277e-06
1.59192e-06
1.57867e-06
1.56532e-06
1.54991e-06
1.53443e-06
1.51724e-06
1.49999e-06
1.48138e-06
1.4627e-06
1.44298e-06
1.42319e-06
1.40266e-06
1.38206e-06
1.36095e-06
1.33981e-06
1.31836e-06
1.29692e-06
1.27532e-06
1.25378e-06
1.23222e-06
1.21076e-06
1.18938e-06
1.16815e-06
1.14707e-06
1.12619e-06
1.10551e-06
1.08507e-06
1.06488e-06
1.04495e-06
1.02529e-06
1.00592e-06
9.86833e-07
9.68035e-07
9.49531e-07
9.31315e-07
9.13388e-07
8.95738e-07
8.78364e-07
8.61251e-07
8.44392e-07
8.27771e-07
8.11378e-07
7.95196e-07
7.7921e-07
7.63403e-07
7.47759e-07
7.3226e-07
7.16888e-07
7.01626e-07
6.86457e-07
6.71363e-07
6.56328e-07
6.41337e-07
6.26374e-07
6.11425e-07
5.96477e-07
5.8152e-07
5.66543e-07
5.51538e-07
5.36497e-07
5.21417e-07
5.06293e-07
4.91126e-07
4.75917e-07
4.60669e-07
4.45389e-07
4.30086e-07
4.14772e-07
3.99463e-07
3.84176e-07
3.68935e-07
3.53766e-07
3.387e-07
3.23774e-07
3.0903e-07
2.94517e-07
2.8029e-07
2.66414e-07
2.52962e-07
2.40019e-07
2.27679e-07
2.1605e-07
2.05248e-07
1.95401e-07
1.86642e-07
1.79103e-07
1.72906e-07
1.68154e-07
1.64915e-07
1.63211e-07
1.63015e-07
1.64251e-07
1.66795e-07
1.70495e-07
1.75178e-07
1.80666e-07
1.86785e-07
1.9337e-07
2.00273e-07
2.07358e-07
2.14507e-07
2.21615e-07
2.2859e-07
2.35353e-07
2.41833e-07
2.47969e-07
2.53706e-07
2.58998e-07
2.63804e-07
2.68087e-07
2.71817e-07
2.74967e-07
2.77515e-07
2.79442e-07
2.80735e-07
2.81382e-07
2.81375e-07
2.80711e-07
2.7939e-07
2.77413e-07
2.74786e-07
2.7152e-07
2.67624e-07
2.63115e-07
2.58011e-07
2.52332e-07
2.46102e-07
2.39347e-07
2.32095e-07
2.24379e-07
2.16232e-07
2.07689e-07
1.9879e-07
1.89575e-07
1.80086e-07
1.70369e-07
1.60471e-07
1.50444e-07
1.40339e-07
1.30215e-07
1.20133e-07
1.10162e-07
1.00379e-07
9.08729e-08
8.17493e-08
7.31382e-08
6.5202e-08
5.81448e-08
5.22151e-08
4.76892e-08
4.48136e-08
4.37091e-08
4.42893e-08
4.62704e-08
4.92701e-08
5.29139e-08
5.68912e-08
6.09657e-08
6.49648e-08
6.87637e-08
7.22723e-08
7.54253e-08
7.81755e-08
8.04889e-08
8.23417e-08
8.37179e-08
8.46077e-08
8.50067e-08
8.49149e-08
8.43361e-08
8.32772e-08
8.17485e-08
7.97625e-08
7.73343e-08
7.44812e-08
7.12224e-08
6.75791e-08
6.3574e-08
5.92318e-08
5.45788e-08
4.96433e-08
4.44563e-08
3.90523e-08
3.34726e-08
2.7771e-08
2.20309e-08
1.64169e-08
1.13648e-08
8.2766e-09
9.51049e-09
1.40216e-08
1.96795e-08
2.57208e-08
3.18955e-08
3.80969e-08
4.42664e-08
5.03649e-08
5.63634e-08
6.2238e-08
6.79689e-08
7.35386e-08
7.8932e-08
8.41357e-08
8.9138e-08
9.39289e-08
9.84997e-08
1.02843e-07
1.06953e-07
1.10824e-07
1.14454e-07
1.17839e-07
1.20979e-07
1.23872e-07
1.2652e-07
1.28923e-07
1.31084e-07
1.33006e-07
1.34691e-07
1.36145e-07
1.37372e-07
1.38378e-07
1.39167e-07
1.39745e-07
1.4012e-07
1.40297e-07
1.40284e-07
1.40086e-07
1.39712e-07
1.39167e-07
1.3846e-07
1.37596e-07
1.36583e-07
1.35428e-07
1.34137e-07
1.32718e-07
1.31175e-07
1.29516e-07
1.27747e-07
1.25874e-07
1.23901e-07
1.21835e-07
1.19682e-07
1.17445e-07
1.1513e-07
1.12742e-07
1.10285e-07
1.07764e-07
1.05183e-07
1.02547e-07
9.98595e-08
9.71253e-08
9.43486e-08
9.15343e-08
8.86869e-08
8.58118e-08
8.29145e-08
8.00011e-08
7.70786e-08
7.41546e-08
7.12379e-08
6.83386e-08
6.54683e-08
6.26404e-08
5.98702e-08
5.71756e-08
5.45769e-08
5.20975e-08
4.97635e-08
4.76037e-08
4.56491e-08
4.39321e-08
4.24844e-08
4.13353e-08
4.05085e-08
4.00197e-08
3.98742e-08
4.00658e-08
4.0577e-08
4.13809e-08
4.24434e-08
4.37265e-08
4.51904e-08
4.67964e-08
4.85076e-08
5.02901e-08
5.21135e-08
5.39505e-08
5.57773e-08
5.75732e-08
5.932e-08
6.10024e-08
6.2607e-08
6.41228e-08
6.55404e-08
6.68522e-08
6.80521e-08
6.91355e-08
7.00989e-08
7.09401e-08
7.16579e-08
7.22523e-08
7.27239e-08
7.30744e-08
7.33059e-08
7.34217e-08
7.34251e-08
7.33205e-08
7.31123e-08
7.28055e-08
7.24054e-08
7.19175e-08
7.13476e-08
7.07014e-08
6.9985e-08
6.92043e-08
6.8365e-08
6.74731e-08
6.65342e-08
6.55538e-08
6.45372e-08
6.34896e-08