/*--------------------------------*- C++ -*----------------------------------*\
| =========                 |                                                 |
| \\      /  F ield         | OpenFOAM: The Open Source CFD Toolbox           |
|  \\    /   O peration     | Version:  v2012                                 |
|   \\  /    A nd           | Website:  www.openfoam.com                      |
|    \\/     M anipulation  |                                                 |
\*---------------------------------------------------------------------------*/
FoamFile
{
    version     2.0;
    format      ascii;
    class       volScalarField;
    location    "50";
    object      he_filtered;
}
// * * * * * * * * * * * * * * * * * * * * * * * * * * * * * * * * * * * * * //

dimensions      [0 2 -2 0 0 0 0];


internalField   nonuniform List<scalar> 
65536
(
1664.05
1663.94
1663.87
1663.73
1663.57
1663.37
1663.13
1662.85
1662.54
1662.19
1661.81
1661.4
1660.96
1660.49
1659.98
1659.46
1658.91
1658.33
1657.73
1657.12
1656.49
1655.84
1655.17
1654.5
1653.81
1653.12
1652.42
1651.71
1651.01
1650.3
1649.58
1648.88
1648.17
1647.47
1646.77
1646.08
1645.39
1644.72
1644.05
1643.39
1642.75
1642.12
1641.49
1640.89
1640.29
1639.71
1639.14
1638.58
1638.04
1637.52
1637
1636.5
1636.02
1635.55
1635.09
1634.64
1634.21
1633.79
1633.39
1632.99
1632.61
1632.24
1631.88
1631.54
1631.2
1630.87
1630.55
1630.24
1629.94
1629.65
1629.37
1629.1
1628.83
1628.57
1628.32
1628.07
1627.83
1627.6
1627.37
1627.15
1626.93
1626.72
1626.51
1626.3
1626.1
1625.91
1625.71
1625.53
1625.34
1625.16
1624.98
1624.8
1624.62
1624.45
1624.28
1624.1
1623.93
1623.77
1623.6
1623.43
1623.27
1623.1
1622.93
1622.77
1622.6
1622.43
1622.26
1622.09
1621.92
1621.75
1621.58
1621.4
1621.23
1621.05
1620.87
1620.68
1620.5
1620.31
1620.12
1619.92
1619.72
1619.52
1619.32
1619.11
1618.9
1618.68
1618.46
1618.24
1618.01
1617.78
1617.55
1617.31
1617.06
1616.82
1616.56
1616.31
1616.05
1615.78
1615.51
1615.24
1614.97
1614.68
1614.4
1614.11
1613.82
1613.52
1613.22
1612.92
1612.61
1612.3
1611.99
1611.68
1611.36
1611.04
1610.72
1610.39
1610.07
1609.74
1609.41
1609.08
1608.75
1608.42
1608.08
1607.75
1607.42
1607.08
1606.75
1606.42
1606.09
1605.76
1605.43
1605.11
1604.79
1604.46
1604.15
1603.83
1603.52
1603.21
1602.9
1602.6
1602.3
1602.01
1601.72
1601.43
1601.15
1600.88
1600.61
1600.34
1600.09
1599.83
1599.58
1599.34
1599.11
1598.88
1598.65
1598.44
1598.22
1598.02
1597.82
1597.63
1597.44
1597.26
1597.09
1596.92
1596.76
1596.6
1596.45
1596.31
1596.17
1596.04
1595.91
1595.79
1595.67
1595.56
1595.45
1595.35
1595.25
1595.15
1595.06
1594.97
1594.89
1594.81
1594.73
1594.66
1594.59
1594.52
1594.45
1594.38
1594.32
1594.26
1594.19
1594.13
1594.07
1594.02
1593.96
1593.9
1593.84
1593.78
1593.72
1593.67
1593.61
1593.55
1593.49
1593.43
1593.37
1593.3
1593.24
1593.18
1593.11
1593.05
1592.98
1592.91
1592.84
1592.78
1592.71
1592.63
1592.56
1592.49
1592.42
1592.35
1592.27
1592.2
1592.12
1592.05
1591.98
1591.9
1591.83
1591.76
1591.69
1591.62
1591.55
1591.48
1591.41
1591.35
1591.28
1591.22
1591.16
1591.1
1591.05
1590.99
1590.94
1590.89
1590.85
1590.81
1590.77
1590.73
1590.69
1590.66
1590.64
1590.61
1590.59
1590.58
1590.56
1590.55
1590.55
1590.55
1590.55
1590.56
1590.57
1590.58
1590.6
1590.62
1590.65
1590.68
1590.71
1590.75
1590.79
1590.84
1590.88
1590.94
1591
1591.06
1591.12
1591.19
1591.26
1591.34
1591.42
1591.5
1591.59
1591.68
1591.77
1591.87
1591.96
1592.07
1592.17
1592.28
1592.39
1592.5
1592.62
1592.74
1592.86
1592.98
1593.11
1593.24
1593.37
1593.5
1593.63
1593.77
1593.91
1594.05
1594.19
1594.33
1594.47
1594.61
1594.76
1594.91
1595.05
1595.2
1595.35
1595.5
1595.65
1595.8
1595.95
1596.1
1596.25
1596.4
1596.55
1596.69
1596.84
1596.99
1597.14
1597.29
1597.43
1597.58
1597.72
1597.87
1598.01
1598.15
1598.29
1598.43
1598.56
1598.7
1598.83
1598.96
1599.09
1599.22
1599.35
1599.47
1599.6
1599.72
1599.84
1599.96
1600.07
1600.18
1600.3
1600.4
1600.51
1600.62
1600.72
1600.82
1600.92
1601.02
1601.11
1601.21
1601.3
1601.39
1601.47
1601.56
1601.64
1601.72
1601.8
1601.88
1601.96
1602.03
1602.1
1602.17
1602.24
1602.31
1602.38
1602.44
1602.5
1602.56
1602.62
1602.68
1602.74
1602.79
1602.85
1602.9
1602.95
1603
1603.05
1603.1
1603.15
1603.19
1603.24
1603.28
1603.32
1603.36
1603.4
1603.44
1603.48
1603.51
1603.55
1603.59
1603.62
1603.65
1603.68
1603.72
1603.75
1603.78
1603.81
1603.83
1603.86
1603.89
1603.91
1603.94
1603.97
1603.99
1604.01
1604.04
1604.06
1604.08
1604.1
1604.12
1604.14
1604.16
1604.18
1604.2
1604.21
1604.23
1604.25
1604.26
1604.28
1604.3
1604.31
1604.33
1604.34
1604.35
1604.37
1604.38
1604.39
1604.4
1604.41
1604.43
1604.44
1604.45
1604.46
1604.47
1604.48
1604.48
1604.49
1604.5
1604.51
1604.52
1604.52
1604.53
1604.54
1604.55
1604.55
1604.56
1604.56
1604.57
1604.57
1604.58
1604.58
1604.59
1604.59
1604.6
1604.6
1604.6
1604.6
1604.61
1604.61
1604.61
1604.61
1604.62
1604.62
1604.62
1604.62
1604.62
1604.62
1604.62
1173.08
1172.98
1172.9
1172.76
1172.61
1172.41
1172.18
1171.91
1171.6
1171.26
1170.88
1170.47
1170.03
1169.56
1169.06
1168.54
1167.99
1167.41
1166.82
1166.21
1165.58
1164.93
1164.27
1163.59
1162.91
1162.22
1161.52
1160.82
1160.11
1159.4
1158.69
1157.98
1157.27
1156.57
1155.87
1155.18
1154.5
1153.82
1153.16
1152.5
1151.86
1151.22
1150.6
1149.99
1149.4
1148.81
1148.25
1147.69
1147.15
1146.62
1146.11
1145.61
1145.12
1144.65
1144.19
1143.74
1143.31
1142.89
1142.48
1142.09
1141.71
1141.34
1140.97
1140.63
1140.29
1139.96
1139.64
1139.33
1139.03
1138.73
1138.45
1138.17
1137.91
1137.64
1137.39
1137.14
1136.9
1136.67
1136.44
1136.21
1135.99
1135.78
1135.57
1135.36
1135.16
1134.96
1134.77
1134.58
1134.39
1134.21
1134.03
1133.85
1133.67
1133.49
1133.32
1133.15
1132.98
1132.81
1132.64
1132.47
1132.3
1132.14
1131.97
1131.8
1131.63
1131.46
1131.3
1131.13
1130.95
1130.78
1130.61
1130.43
1130.25
1130.07
1129.89
1129.71
1129.52
1129.33
1129.14
1128.94
1128.75
1128.54
1128.34
1128.13
1127.92
1127.7
1127.48
1127.26
1127.03
1126.8
1126.56
1126.32
1126.08
1125.83
1125.58
1125.32
1125.06
1124.8
1124.53
1124.25
1123.98
1123.7
1123.41
1123.12
1122.83
1122.53
1122.23
1121.93
1121.62
1121.31
1121
1120.69
1120.37
1120.05
1119.73
1119.4
1119.08
1118.75
1118.42
1118.09
1117.76
1117.42
1117.09
1116.76
1116.43
1116.09
1115.76
1115.43
1115.1
1114.77
1114.44
1114.12
1113.79
1113.47
1113.15
1112.84
1112.52
1112.22
1111.91
1111.61
1111.31
1111.02
1110.73
1110.44
1110.16
1109.89
1109.62
1109.35
1109.09
1108.84
1108.59
1108.35
1108.11
1107.88
1107.66
1107.44
1107.23
1107.02
1106.83
1106.63
1106.45
1106.27
1106.09
1105.92
1105.76
1105.61
1105.46
1105.31
1105.17
1105.04
1104.91
1104.79
1104.67
1104.56
1104.45
1104.35
1104.25
1104.15
1104.06
1103.98
1103.89
1103.81
1103.73
1103.66
1103.59
1103.52
1103.45
1103.38
1103.32
1103.26
1103.2
1103.14
1103.08
1103.02
1102.96
1102.9
1102.84
1102.78
1102.73
1102.67
1102.61
1102.55
1102.49
1102.43
1102.37
1102.3
1102.24
1102.18
1102.11
1102.05
1101.98
1101.91
1101.84
1101.77
1101.7
1101.63
1101.56
1101.49
1101.42
1101.34
1101.27
1101.2
1101.12
1101.05
1100.98
1100.9
1100.83
1100.76
1100.69
1100.62
1100.55
1100.48
1100.41
1100.35
1100.28
1100.22
1100.16
1100.1
1100.05
1099.99
1099.94
1099.89
1099.85
1099.8
1099.76
1099.73
1099.69
1099.66
1099.64
1099.61
1099.59
1099.58
1099.56
1099.55
1099.55
1099.55
1099.55
1099.56
1099.57
1099.58
1099.6
1099.62
1099.65
1099.68
1099.71
1099.75
1099.79
1099.83
1099.88
1099.94
1100
1100.06
1100.12
1100.19
1100.26
1100.34
1100.42
1100.5
1100.59
1100.68
1100.77
1100.87
1100.96
1101.07
1101.17
1101.28
1101.39
1101.5
1101.62
1101.74
1101.86
1101.98
1102.11
1102.24
1102.37
1102.5
1102.63
1102.77
1102.91
1103.05
1103.19
1103.33
1103.47
1103.61
1103.76
1103.91
1104.05
1104.2
1104.35
1104.5
1104.65
1104.8
1104.95
1105.1
1105.25
1105.4
1105.55
1105.7
1105.84
1105.99
1106.14
1106.29
1106.43
1106.58
1106.72
1106.87
1107.01
1107.15
1107.29
1107.43
1107.56
1107.7
1107.83
1107.96
1108.09
1108.22
1108.35
1108.48
1108.6
1108.72
1108.84
1108.96
1109.07
1109.18
1109.3
1109.4
1109.51
1109.62
1109.72
1109.82
1109.92
1110.02
1110.11
1110.21
1110.3
1110.39
1110.47
1110.56
1110.64
1110.72
1110.8
1110.88
1110.96
1111.03
1111.1
1111.17
1111.24
1111.31
1111.38
1111.44
1111.5
1111.56
1111.62
1111.68
1111.74
1111.79
1111.85
1111.9
1111.95
1112
1112.05
1112.1
1112.15
1112.19
1112.24
1112.28
1112.32
1112.36
1112.4
1112.44
1112.48
1112.51
1112.55
1112.59
1112.62
1112.65
1112.69
1112.72
1112.75
1112.78
1112.81
1112.83
1112.86
1112.89
1112.92
1112.94
1112.97
1112.99
1113.01
1113.04
1113.06
1113.08
1113.1
1113.12
1113.14
1113.16
1113.18
1113.2
1113.21
1113.23
1113.25
1113.26
1113.28
1113.3
1113.31
1113.33
1113.34
1113.35
1113.37
1113.38
1113.39
1113.4
1113.41
1113.43
1113.44
1113.45
1113.46
1113.47
1113.48
1113.48
1113.49
1113.5
1113.51
1113.52
1113.52
1113.53
1113.54
1113.55
1113.55
1113.56
1113.56
1113.57
1113.57
1113.58
1113.58
1113.59
1113.59
1113.6
1113.6
1113.6
1113.6
1113.61
1113.61
1113.61
1113.61
1113.62
1113.62
1113.62
1113.62
1113.62
1113.62
1113.62
682.963
682.959
682.872
682.755
682.595
682.395
682.159
681.883
681.574
681.228
680.849
680.436
679.993
679.52
679.019
678.491
677.939
677.364
676.768
676.152
675.518
674.869
674.206
673.531
672.845
672.151
671.451
670.745
670.036
669.325
668.614
667.904
667.197
666.494
665.797
665.105
664.421
663.746
663.08
662.424
661.779
661.146
660.525
659.917
659.321
658.739
658.171
657.617
657.076
656.55
656.037
655.539
655.054
654.583
654.126
653.682
653.251
652.833
652.427
652.034
651.652
651.282
650.923
650.575
650.238
649.91
649.592
649.284
648.984
648.693
648.41
648.135
647.868
647.608
647.355
647.108
646.868
646.633
646.404
646.181
645.962
645.749
645.54
645.335
645.135
644.938
644.744
644.555
644.368
644.184
644.002
643.823
643.646
643.471
643.298
643.126
642.956
642.786
642.618
642.45
642.283
642.116
641.949
641.781
641.614
641.446
641.277
641.107
640.936
640.763
640.59
640.414
640.237
640.057
639.875
639.691
639.505
639.315
639.123
638.928
638.729
638.528
638.323
638.114
637.902
637.686
637.467
637.243
637.016
636.784
636.549
636.309
636.065
635.817
635.565
635.309
635.049
634.784
634.515
634.243
633.966
633.685
633.4
633.112
632.819
632.523
632.224
631.921
631.615
631.306
630.994
630.679
630.362
630.042
629.72
629.396
629.07
628.742
628.413
628.083
627.751
627.42
627.087
626.755
626.422
626.09
625.758
625.427
625.097
624.768
624.441
624.116
623.792
623.471
623.153
622.838
622.525
622.216
621.91
621.608
621.31
621.017
620.727
620.442
620.162
619.888
619.618
619.353
619.094
618.841
618.593
618.351
618.115
617.885
617.661
617.443
617.232
617.027
616.828
616.635
616.448
616.268
616.094
615.926
615.764
615.608
615.458
615.314
615.175
615.042
614.914
614.791
614.674
614.561
614.453
614.35
614.251
614.156
614.065
613.977
613.894
613.813
613.735
613.66
613.588
613.518
613.45
613.384
613.319
613.257
613.195
613.134
613.074
613.015
612.957
612.898
612.84
612.782
612.724
612.665
612.606
612.547
612.487
612.426
612.364
612.302
612.239
612.175
612.11
612.044
611.977
611.909
611.841
611.771
611.701
611.63
611.559
611.486
611.414
611.341
611.267
611.194
611.12
611.046
610.973
610.9
610.827
610.755
610.683
610.613
610.543
610.475
610.408
610.342
610.279
610.216
610.156
610.098
610.042
609.989
609.938
609.889
609.843
609.8
609.76
609.724
609.69
609.659
609.632
609.609
609.589
609.572
609.559
609.55
609.545
609.543
609.546
609.552
609.562
609.576
609.594
609.616
609.642
609.672
609.706
609.744
609.786
609.832
609.882
609.936
609.993
610.054
610.119
610.188
610.26
610.336
610.416
610.499
610.585
610.675
610.768
610.864
610.963
611.065
611.171
611.279
611.39
611.503
611.62
611.738
611.86
611.983
612.109
612.237
612.367
612.499
612.633
612.769
612.906
613.045
613.186
613.328
613.471
613.615
613.76
613.906
614.054
614.201
614.35
614.499
614.648
614.798
614.948
615.098
615.247
615.397
615.547
615.696
615.845
615.993
616.141
616.288
616.435
616.58
616.724
616.867
617.01
617.15
617.29
617.428
617.565
617.7
617.834
617.966
618.096
618.225
618.351
618.476
618.599
618.721
618.84
618.957
619.072
619.186
619.297
619.406
619.513
619.619
619.722
619.823
619.922
620.019
620.114
620.207
620.298
620.387
620.474
620.559
620.643
620.724
620.804
620.882
620.958
621.032
621.104
621.175
621.244
621.311
621.377
621.442
621.504
621.565
621.625
621.683
621.74
621.795
621.85
621.902
621.954
622.004
622.053
622.1
622.147
622.192
622.236
622.279
622.321
622.362
622.402
622.44
622.478
622.515
622.551
622.586
622.62
622.653
622.686
622.717
622.748
622.778
622.807
622.835
622.863
622.889
622.915
622.941
622.966
622.99
623.013
623.036
623.058
623.08
623.101
623.121
623.141
623.16
623.179
623.197
623.215
623.232
623.249
623.265
623.281
623.296
623.311
623.325
623.339
623.353
623.366
623.379
623.391
623.403
623.414
623.426
623.436
623.447
623.457
623.466
623.476
623.485
623.494
623.502
623.51
623.518
623.525
623.532
623.539
623.546
623.552
623.558
623.563
623.569
623.574
623.579
623.583
623.587
623.591
623.595
623.599
623.602
623.605
623.608
623.61
623.612
623.614
623.616
623.617
623.619
623.62
623.62
623.621
623.621
192.069
192.013
191.929
191.806
191.644
191.444
191.207
190.932
190.621
190.274
189.893
189.479
189.034
188.559
188.056
187.526
186.971
186.394
185.794
185.176
184.54
183.888
183.222
182.544
181.856
181.159
180.455
179.747
179.035
178.322
177.609
176.896
176.187
175.482
174.782
174.089
173.403
172.726
172.058
171.401
170.755
170.121
169.499
168.889
168.293
167.711
167.142
166.587
166.046
165.519
165.007
164.508
164.024
163.553
163.096
162.652
162.221
161.804
161.398
161.005
160.624
160.255
159.897
159.549
159.212
158.885
158.568
158.259
157.96
157.67
157.388
157.113
156.846
156.587
156.334
156.088
155.848
155.613
155.385
155.162
154.944
154.731
154.522
154.317
154.117
153.92
153.727
153.537
153.351
153.167
152.985
152.806
152.629
152.454
152.281
152.11
151.939
151.77
151.601
151.434
151.266
151.099
150.932
150.765
150.597
150.429
150.26
150.09
149.919
149.747
149.573
149.397
149.22
149.04
148.859
148.675
148.488
148.299
148.106
147.911
147.713
147.511
147.307
147.098
146.886
146.67
146.451
146.228
146
145.769
145.534
145.294
145.051
144.803
144.551
144.295
144.035
143.771
143.502
143.23
142.953
142.673
142.388
142.1
141.808
141.513
141.214
140.911
140.606
140.297
139.986
139.671
139.354
139.035
138.713
138.389
138.064
137.736
137.408
137.078
136.747
136.416
136.084
135.751
135.419
135.087
134.756
134.425
134.096
133.767
133.441
133.116
132.793
132.472
132.154
131.839
131.527
131.218
130.912
130.611
130.313
130.019
129.73
129.446
129.166
128.891
128.622
128.357
128.098
127.845
127.597
127.355
127.119
126.89
126.666
126.448
126.237
126.031
125.832
125.639
125.453
125.272
125.098
124.93
124.768
124.612
124.462
124.317
124.179
124.045
123.917
123.795
123.677
123.564
123.456
123.353
123.253
123.158
123.067
122.979
122.895
122.814
122.736
122.661
122.589
122.518
122.45
122.384
122.319
122.256
122.194
122.133
122.073
122.014
121.955
121.897
121.838
121.78
121.721
121.663
121.603
121.544
121.483
121.423
121.361
121.298
121.235
121.171
121.106
121.04
120.973
120.905
120.836
120.766
120.696
120.625
120.553
120.481
120.408
120.335
120.261
120.188
120.114
120.04
119.967
119.893
119.821
119.748
119.677
119.606
119.537
119.469
119.402
119.336
119.272
119.21
119.15
119.092
119.036
118.983
118.931
118.883
118.837
118.794
118.755
118.718
118.684
118.654
118.627
118.603
118.583
118.567
118.554
118.545
118.54
118.538
118.541
118.547
118.557
118.572
118.59
118.612
118.638
118.668
118.702
118.741
118.783
118.829
118.878
118.932
118.99
119.051
119.116
119.185
119.258
119.334
119.413
119.496
119.583
119.673
119.766
119.862
119.961
120.064
120.169
120.277
120.388
120.502
120.619
120.738
120.859
120.983
121.109
121.237
121.367
121.499
121.633
121.769
121.907
122.046
122.186
122.328
122.471
122.616
122.761
122.907
123.054
123.202
123.351
123.5
123.649
123.799
123.949
124.099
124.249
124.399
124.549
124.698
124.847
124.995
125.143
125.29
125.436
125.582
125.726
125.869
126.012
126.153
126.292
126.43
126.567
126.702
126.836
126.968
127.098
127.227
127.354
127.479
127.602
127.723
127.842
127.959
128.074
128.188
128.299
128.408
128.515
128.621
128.724
128.825
128.924
129.021
129.116
129.209
129.3
129.389
129.476
129.561
129.644
129.726
129.805
129.883
129.959
130.033
130.106
130.176
130.245
130.313
130.379
130.443
130.505
130.567
130.626
130.684
130.741
130.797
130.851
130.903
130.955
131.005
131.054
131.101
131.148
131.193
131.237
131.28
131.322
131.363
131.402
131.441
131.479
131.516
131.552
131.587
131.621
131.654
131.686
131.718
131.748
131.778
131.807
131.836
131.863
131.89
131.916
131.941
131.966
131.99
132.014
132.037
132.059
132.08
132.101
132.122
132.141
132.161
132.179
132.198
132.215
132.233
132.249
132.265
132.281
132.297
132.311
132.326
132.34
132.353
132.366
132.379
132.391
132.403
132.415
132.426
132.437
132.447
132.457
132.467
132.476
132.485
132.494
132.502
132.51
132.518
132.525
132.532
132.539
132.546
132.552
132.558
132.564
132.569
132.574
132.579
132.583
132.588
132.592
132.595
132.599
132.602
132.605
132.608
132.61
132.613
132.614
132.616
132.618
132.619
132.62
132.621
132.621
132.621
-297.953
-297.983
-298.065
-298.183
-298.344
-298.543
-298.782
-299.058
-299.371
-299.72
-300.102
-300.518
-300.965
-301.443
-301.948
-302.481
-303.038
-303.618
-304.219
-304.84
-305.479
-306.133
-306.801
-307.482
-308.172
-308.871
-309.576
-310.286
-311
-311.715
-312.43
-313.143
-313.854
-314.56
-315.261
-315.955
-316.641
-317.318
-317.986
-318.644
-319.29
-319.924
-320.545
-321.154
-321.75
-322.332
-322.9
-323.453
-323.993
-324.519
-325.03
-325.527
-326.01
-326.48
-326.935
-327.377
-327.807
-328.223
-328.626
-329.018
-329.397
-329.765
-330.122
-330.468
-330.804
-331.129
-331.445
-331.752
-332.05
-332.339
-332.621
-332.894
-333.16
-333.419
-333.671
-333.916
-334.156
-334.389
-334.617
-334.84
-335.058
-335.271
-335.479
-335.683
-335.884
-336.08
-336.273
-336.463
-336.65
-336.834
-337.015
-337.195
-337.372
-337.547
-337.72
-337.892
-338.063
-338.232
-338.401
-338.569
-338.737
-338.904
-339.072
-339.239
-339.407
-339.576
-339.745
-339.915
-340.087
-340.26
-340.434
-340.61
-340.787
-340.967
-341.149
-341.334
-341.521
-341.71
-341.903
-342.098
-342.296
-342.498
-342.703
-342.912
-343.124
-343.34
-343.559
-343.783
-344.01
-344.241
-344.477
-344.716
-344.959
-345.207
-345.459
-345.715
-345.975
-346.239
-346.507
-346.779
-347.056
-347.336
-347.62
-347.908
-348.199
-348.495
-348.793
-349.095
-349.401
-349.709
-350.02
-350.334
-350.651
-350.97
-351.291
-351.615
-351.94
-352.267
-352.595
-352.924
-353.254
-353.585
-353.917
-354.249
-354.58
-354.912
-355.243
-355.573
-355.902
-356.23
-356.556
-356.881
-357.204
-357.524
-357.842
-358.156
-358.468
-358.777
-359.082
-359.383
-359.681
-359.974
-360.263
-360.547
-360.827
-361.102
-361.371
-361.635
-361.894
-362.147
-362.395
-362.637
-362.873
-363.102
-363.326
-363.544
-363.755
-363.961
-364.16
-364.353
-364.539
-364.72
-364.894
-365.063
-365.225
-365.381
-365.531
-365.676
-365.815
-365.948
-366.077
-366.2
-366.317
-366.43
-366.539
-366.643
-366.742
-366.838
-366.929
-367.017
-367.102
-367.183
-367.261
-367.337
-367.41
-367.48
-367.549
-367.615
-367.68
-367.744
-367.806
-367.867
-367.927
-367.987
-368.046
-368.105
-368.164
-368.222
-368.281
-368.34
-368.4
-368.46
-368.52
-368.581
-368.643
-368.706
-368.77
-368.834
-368.9
-368.966
-369.033
-369.101
-369.17
-369.24
-369.31
-369.382
-369.454
-369.526
-369.599
-369.672
-369.746
-369.82
-369.894
-369.968
-370.041
-370.115
-370.187
-370.26
-370.331
-370.402
-370.471
-370.54
-370.607
-370.672
-370.736
-370.798
-370.858
-370.916
-370.972
-371.026
-371.077
-371.125
-371.171
-371.214
-371.253
-371.29
-371.324
-371.354
-371.381
-371.404
-371.424
-371.44
-371.453
-371.462
-371.467
-371.468
-371.466
-371.459
-371.449
-371.434
-371.416
-371.394
-371.367
-371.337
-371.303
-371.264
-371.222
-371.176
-371.126
-371.072
-371.014
-370.953
-370.888
-370.819
-370.746
-370.67
-370.59
-370.507
-370.42
-370.33
-370.237
-370.14
-370.041
-369.938
-369.833
-369.724
-369.613
-369.499
-369.383
-369.263
-369.142
-369.018
-368.892
-368.764
-368.633
-368.501
-368.367
-368.231
-368.093
-367.954
-367.813
-367.671
-367.528
-367.383
-367.238
-367.091
-366.944
-366.796
-366.648
-366.498
-366.349
-366.199
-366.049
-365.899
-365.749
-365.599
-365.449
-365.3
-365.151
-365.002
-364.854
-364.707
-364.561
-364.415
-364.271
-364.128
-363.986
-363.845
-363.705
-363.567
-363.43
-363.295
-363.161
-363.029
-362.899
-362.77
-362.643
-362.519
-362.395
-362.274
-362.155
-362.038
-361.923
-361.809
-361.698
-361.589
-361.482
-361.377
-361.274
-361.173
-361.074
-360.977
-360.882
-360.789
-360.698
-360.609
-360.522
-360.437
-360.353
-360.272
-360.192
-360.115
-360.039
-359.965
-359.892
-359.822
-359.753
-359.685
-359.62
-359.555
-359.493
-359.432
-359.372
-359.314
-359.257
-359.202
-359.148
-359.095
-359.044
-358.994
-358.945
-358.898
-358.851
-358.806
-358.762
-358.719
-358.677
-358.636
-358.596
-358.558
-358.52
-358.483
-358.447
-358.412
-358.378
-358.345
-358.313
-358.281
-358.251
-358.221
-358.192
-358.164
-358.136
-358.109
-358.083
-358.058
-358.033
-358.009
-357.986
-357.963
-357.941
-357.919
-357.898
-357.878
-357.858
-357.839
-357.82
-357.802
-357.784
-357.767
-357.75
-357.734
-357.718
-357.703
-357.688
-357.674
-357.66
-357.646
-357.633
-357.621
-357.608
-357.596
-357.585
-357.574
-357.563
-357.553
-357.543
-357.533
-357.524
-357.514
-357.506
-357.497
-357.489
-357.482
-357.474
-357.467
-357.46
-357.454
-357.448
-357.442
-357.436
-357.431
-357.426
-357.421
-357.416
-357.412
-357.408
-357.404
-357.401
-357.398
-357.395
-357.392
-357.389
-357.387
-357.385
-357.384
-357.382
-357.381
-357.38
-357.379
-357.379
-357.378
-788.848
-788.894
-788.976
-789.101
-789.264
-789.466
-789.707
-789.986
-790.301
-790.653
-791.038
-791.458
-791.908
-792.389
-792.898
-793.435
-793.996
-794.581
-795.187
-795.812
-796.455
-797.114
-797.787
-798.472
-799.167
-799.87
-800.58
-801.294
-802.012
-802.731
-803.449
-804.167
-804.881
-805.59
-806.294
-806.991
-807.68
-808.36
-809.03
-809.689
-810.337
-810.972
-811.595
-812.205
-812.802
-813.384
-813.953
-814.507
-815.047
-815.572
-816.083
-816.58
-817.063
-817.531
-817.986
-818.428
-818.856
-819.271
-819.674
-820.064
-820.442
-820.809
-821.165
-821.51
-821.844
-822.169
-822.483
-822.789
-823.086
-823.374
-823.654
-823.927
-824.192
-824.449
-824.701
-824.945
-825.184
-825.417
-825.644
-825.866
-826.083
-826.296
-826.504
-826.707
-826.907
-827.103
-827.296
-827.486
-827.672
-827.856
-828.038
-828.217
-828.394
-828.569
-828.742
-828.914
-829.085
-829.254
-829.423
-829.591
-829.759
-829.927
-830.094
-830.262
-830.43
-830.599
-830.768
-830.938
-831.11
-831.283
-831.457
-831.633
-831.811
-831.991
-832.173
-832.357
-832.544
-832.734
-832.926
-833.122
-833.32
-833.522
-833.727
-833.935
-834.147
-834.363
-834.583
-834.806
-835.033
-835.264
-835.499
-835.738
-835.981
-836.229
-836.48
-836.735
-836.995
-837.259
-837.527
-837.799
-838.074
-838.354
-838.638
-838.925
-839.216
-839.511
-839.809
-840.11
-840.415
-840.723
-841.033
-841.347
-841.663
-841.981
-842.302
-842.624
-842.949
-843.275
-843.602
-843.931
-844.261
-844.591
-844.922
-845.253
-845.584
-845.915
-846.245
-846.575
-846.903
-847.231
-847.556
-847.88
-848.202
-848.522
-848.839
-849.154
-849.465
-849.773
-850.078
-850.379
-850.676
-850.969
-851.257
-851.541
-851.82
-852.095
-852.364
-852.628
-852.887
-853.14
-853.387
-853.629
-853.864
-854.094
-854.318
-854.536
-854.747
-854.953
-855.152
-855.345
-855.531
-855.712
-855.886
-856.055
-856.217
-856.374
-856.524
-856.669
-856.808
-856.942
-857.07
-857.194
-857.312
-857.425
-857.534
-857.638
-857.738
-857.834
-857.925
-858.014
-858.099
-858.18
-858.259
-858.335
-858.408
-858.479
-858.548
-858.615
-858.68
-858.744
-858.807
-858.868
-858.929
-858.989
-859.048
-859.108
-859.167
-859.226
-859.285
-859.344
-859.404
-859.465
-859.525
-859.587
-859.649
-859.712
-859.776
-859.841
-859.907
-859.973
-860.041
-860.109
-860.178
-860.248
-860.319
-860.391
-860.463
-860.535
-860.609
-860.682
-860.756
-860.83
-860.904
-860.978
-861.052
-861.125
-861.198
-861.27
-861.342
-861.412
-861.482
-861.55
-861.617
-861.683
-861.747
-861.809
-861.869
-861.927
-861.983
-862.036
-862.087
-862.135
-862.181
-862.224
-862.263
-862.3
-862.333
-862.363
-862.39
-862.414
-862.433
-862.449
-862.462
-862.471
-862.476
-862.477
-862.474
-862.467
-862.457
-862.442
-862.423
-862.401
-862.374
-862.344
-862.309
-862.271
-862.228
-862.182
-862.132
-862.078
-862.02
-861.958
-861.892
-861.823
-861.75
-861.674
-861.594
-861.51
-861.424
-861.333
-861.24
-861.143
-861.043
-860.941
-860.835
-860.726
-860.615
-860.501
-860.384
-860.265
-860.143
-860.019
-859.892
-859.764
-859.633
-859.501
-859.366
-859.23
-859.092
-858.953
-858.812
-858.67
-858.527
-858.382
-858.236
-858.09
-857.942
-857.794
-857.646
-857.496
-857.347
-857.197
-857.046
-856.896
-856.746
-856.596
-856.446
-856.297
-856.147
-855.999
-855.851
-855.704
-855.557
-855.412
-855.267
-855.124
-854.982
-854.841
-854.701
-854.563
-854.426
-854.291
-854.157
-854.025
-853.895
-853.766
-853.64
-853.515
-853.392
-853.271
-853.151
-853.034
-852.919
-852.806
-852.695
-852.586
-852.478
-852.373
-852.27
-852.169
-852.07
-851.974
-851.879
-851.786
-851.695
-851.606
-851.519
-851.434
-851.351
-851.269
-851.19
-851.112
-851.036
-850.962
-850.89
-850.819
-850.75
-850.683
-850.617
-850.553
-850.491
-850.43
-850.37
-850.312
-850.255
-850.2
-850.146
-850.093
-850.042
-849.992
-849.943
-849.896
-849.85
-849.804
-849.76
-849.717
-849.676
-849.635
-849.595
-849.556
-849.519
-849.482
-849.446
-849.411
-849.377
-849.344
-849.312
-849.28
-849.25
-849.22
-849.191
-849.163
-849.135
-849.108
-849.082
-849.057
-849.032
-849.008
-848.985
-848.962
-848.94
-848.918
-848.897
-848.877
-848.857
-848.838
-848.819
-848.801
-848.783
-848.766
-848.75
-848.733
-848.718
-848.702
-848.688
-848.673
-848.659
-848.646
-848.633
-848.62
-848.608
-848.596
-848.584
-848.573
-848.562
-848.552
-848.542
-848.532
-848.523
-848.514
-848.505
-848.497
-848.489
-848.481
-848.474
-848.467
-848.46
-848.453
-848.447
-848.441
-848.436
-848.43
-848.425
-848.42
-848.416
-848.412
-848.408
-848.404
-848.4
-848.397
-848.394
-848.392
-848.389
-848.387
-848.385
-848.383
-848.382
-848.38
-848.38
-848.379
-848.378
-848.378
-1278.82
-1278.86
-1278.95
-1279.07
-1279.23
-1279.43
-1279.67
-1279.96
-1280.27
-1280.63
-1281.02
-1281.44
-1281.89
-1282.38
-1282.89
-1283.43
-1284
-1284.58
-1285.19
-1285.82
-1286.47
-1287.13
-1287.81
-1288.5
-1289.2
-1289.91
-1290.62
-1291.34
-1292.06
-1292.78
-1293.5
-1294.22
-1294.94
-1295.65
-1296.36
-1297.05
-1297.74
-1298.43
-1299.1
-1299.76
-1300.4
-1301.04
-1301.66
-1302.27
-1302.87
-1303.45
-1304.02
-1304.57
-1305.11
-1305.63
-1306.14
-1306.64
-1307.12
-1307.59
-1308.04
-1308.48
-1308.9
-1309.32
-1309.72
-1310.11
-1310.48
-1310.85
-1311.2
-1311.54
-1311.87
-1312.2
-1312.51
-1312.81
-1313.11
-1313.4
-1313.67
-1313.94
-1314.21
-1314.46
-1314.71
-1314.96
-1315.2
-1315.43
-1315.65
-1315.88
-1316.09
-1316.3
-1316.51
-1316.71
-1316.91
-1317.11
-1317.3
-1317.49
-1317.68
-1317.86
-1318.04
-1318.22
-1318.4
-1318.58
-1318.75
-1318.92
-1319.09
-1319.26
-1319.43
-1319.6
-1319.77
-1319.94
-1320.1
-1320.27
-1320.44
-1320.61
-1320.78
-1320.95
-1321.12
-1321.3
-1321.47
-1321.65
-1321.83
-1322.01
-1322.19
-1322.37
-1322.56
-1322.75
-1322.94
-1323.14
-1323.34
-1323.54
-1323.74
-1323.95
-1324.17
-1324.38
-1324.6
-1324.82
-1325.05
-1325.28
-1325.52
-1325.76
-1326
-1326.25
-1326.5
-1326.75
-1327.01
-1327.28
-1327.54
-1327.81
-1328.09
-1328.37
-1328.65
-1328.94
-1329.23
-1329.52
-1329.82
-1330.12
-1330.43
-1330.73
-1331.04
-1331.36
-1331.67
-1331.99
-1332.31
-1332.63
-1332.96
-1333.28
-1333.61
-1333.94
-1334.26
-1334.59
-1334.92
-1335.25
-1335.58
-1335.91
-1336.24
-1336.57
-1336.9
-1337.23
-1337.55
-1337.88
-1338.2
-1338.52
-1338.83
-1339.15
-1339.46
-1339.77
-1340.07
-1340.37
-1340.67
-1340.96
-1341.25
-1341.53
-1341.81
-1342.08
-1342.35
-1342.62
-1342.88
-1343.13
-1343.38
-1343.62
-1343.85
-1344.08
-1344.31
-1344.52
-1344.74
-1344.94
-1345.14
-1345.33
-1345.52
-1345.7
-1345.88
-1346.04
-1346.21
-1346.36
-1346.51
-1346.66
-1346.8
-1346.93
-1347.06
-1347.19
-1347.3
-1347.42
-1347.53
-1347.63
-1347.73
-1347.83
-1347.92
-1348.01
-1348.09
-1348.18
-1348.26
-1348.33
-1348.41
-1348.48
-1348.55
-1348.61
-1348.68
-1348.74
-1348.81
-1348.87
-1348.93
-1348.99
-1349.05
-1349.11
-1349.17
-1349.23
-1349.29
-1349.35
-1349.41
-1349.47
-1349.53
-1349.59
-1349.66
-1349.72
-1349.78
-1349.85
-1349.91
-1349.98
-1350.05
-1350.12
-1350.19
-1350.26
-1350.33
-1350.4
-1350.47
-1350.55
-1350.62
-1350.69
-1350.77
-1350.84
-1350.92
-1350.99
-1351.06
-1351.14
-1351.21
-1351.28
-1351.35
-1351.42
-1351.49
-1351.56
-1351.63
-1351.7
-1351.76
-1351.82
-1351.88
-1351.94
-1352
-1352.05
-1352.1
-1352.15
-1352.19
-1352.24
-1352.28
-1352.31
-1352.34
-1352.37
-1352.4
-1352.42
-1352.44
-1352.46
-1352.47
-1352.48
-1352.49
-1352.49
-1352.48
-1352.48
-1352.47
-1352.45
-1352.43
-1352.41
-1352.38
-1352.35
-1352.32
-1352.28
-1352.24
-1352.19
-1352.14
-1352.08
-1352.03
-1351.96
-1351.9
-1351.83
-1351.76
-1351.68
-1351.6
-1351.51
-1351.43
-1351.34
-1351.24
-1351.15
-1351.05
-1350.94
-1350.84
-1350.73
-1350.62
-1350.5
-1350.39
-1350.27
-1350.14
-1350.02
-1349.89
-1349.76
-1349.63
-1349.5
-1349.37
-1349.23
-1349.09
-1348.95
-1348.81
-1348.67
-1348.53
-1348.38
-1348.23
-1348.09
-1347.94
-1347.79
-1347.64
-1347.49
-1347.34
-1347.19
-1347.04
-1346.89
-1346.74
-1346.59
-1346.44
-1346.29
-1346.14
-1345.99
-1345.85
-1345.7
-1345.55
-1345.41
-1345.26
-1345.12
-1344.98
-1344.84
-1344.7
-1344.56
-1344.42
-1344.29
-1344.15
-1344.02
-1343.89
-1343.76
-1343.64
-1343.51
-1343.39
-1343.27
-1343.15
-1343.03
-1342.91
-1342.8
-1342.69
-1342.58
-1342.47
-1342.37
-1342.27
-1342.17
-1342.07
-1341.97
-1341.87
-1341.78
-1341.69
-1341.6
-1341.52
-1341.43
-1341.35
-1341.27
-1341.19
-1341.11
-1341.03
-1340.96
-1340.89
-1340.82
-1340.75
-1340.68
-1340.61
-1340.55
-1340.49
-1340.43
-1340.37
-1340.31
-1340.25
-1340.2
-1340.14
-1340.09
-1340.04
-1339.99
-1339.94
-1339.89
-1339.85
-1339.8
-1339.76
-1339.72
-1339.67
-1339.63
-1339.59
-1339.55
-1339.52
-1339.48
-1339.44
-1339.41
-1339.38
-1339.34
-1339.31