/*--------------------------------*- C++ -*----------------------------------*\
| =========                 |                                                 |
| \\      /  F ield         | OpenFOAM: The Open Source CFD Toolbox           |
|  \\    /   O peration     | Version:  v2012                                 |
|   \\  /    A nd           | Website:  www.openfoam.com                      |
|    \\/     M anipulation  |                                                 |
\*---------------------------------------------------------------------------*/
FoamFile
{
    version     2.0;
    format      ascii;
    class       volScalarField;
    location    "50";
    object      p;
}
// * * * * * * * * * * * * * * * * * * * * * * * * * * * * * * * * * * * * * //

dimensions      [1 -1 -2 0 0 0 0];


internalField   nonuniform List<scalar> 
65536
(
139509
139509
139508
139508
139507
139506
139504
139503
139501
139499
139497
139494
139491
139489
139485
139482
139479
139475
139471
139468
139463
139459
139455
139450
139446
139441
139436
139431
139426
139421
139416
139411
139406
139400
139395
139390
139384
139379
139373
139368
139362
139357
139351
139346
139340
139335
139329
139324
139318
139313
139308
139303
139297
139292
139287
139282
139277
139272
139267
139262
139258
139253
139248
139244
139239
139235
139231
139226
139222
139218
139214
139210
139206
139202
139198
139195
139191
139187
139184
139180
139177
139174
139170
139167
139164
139161
139158
139155
139152
139149
139147
139144
139141
139139
139136
139134
139131
139129
139127
139124
139122
139120
139118
139116
139114
139112
139110
139108
139106
139104
139102
139101
139099
139097
139095
139094
139092
139091
139089
139087
139086
139084
139083
139082
139080
139079
139077
139076
139075
139073
139072
139071
139069
139068
139067
139066
139064
139063
139062
139061
139060
139059
139057
139056
139055
139054
139053
139052
139051
139050
139049
139048
139047
139045
139044
139043
139042
139041
139040
139039
139039
139038
139037
139036
139035
139034
139033
139032
139031
139030
139029
139028
139028
139027
139026
139025
139024
139024
139023
139022
139021
139021
139020
139019
139018
139018
139017
139016
139016
139015
139015
139014
139013
139013
139012
139012
139011
139011
139010
139010
139009
139009
139008
139008
139008
139007
139007
139006
139006
139006
139005
139005
139005
139004
139004
139004
139004
139003
139003
139003
139003
139002
139002
139002
139002
139002
139001
139001
139001
139001
139001
139000
139000
139000
139000
139000
139000
138999
138999
138999
138999
138999
138999
138999
138998
138998
138998
138998
138998
138998
138998
138997
138997
138997
138997
138997
138997
138996
138996
138996
138996
138996
138996
138996
138995
138995
138995
138995
138995
138995
138995
138994
138994
138994
138994
138994
138994
138994
138994
138993
138993
138993
138993
138993
138993
138993
138993
138993
138993
138993
138993
138993
138992
138992
138992
138992
138992
138992
138992
138992
138992
138992
138992
138992
138993
138993
138993
138993
138993
138993
138993
138993
138993
138993
138993
138993
138993
138994
138994
138994
138994
138994
138994
138994
138995
138995
138995
138995
138995
138995
138996
138996
138996
138996
138996
138997
138997
138997
138997
138998
138998
138998
138998
138998
138999
138999
138999
138999
139000
139000
139000
139000
139001
139001
139001
139001
139001
139002
139002
139002
139002
139003
139003
139003
139003
139004
139004
139004
139004
139004
139005
139005
139005
139005
139006
139006
139006
139006
139006
139007
139007
139007
139007
139007
139007
139008
139008
139008
139008
139008
139008
139009
139009
139009
139009
139009
139009
139010
139010
139010
139010
139010
139010
139010
139010
139011
139011
139011
139011
139011
139011
139011
139011
139011
139011
139012
139012
139012
139012
139012
139012
139012
139012
139012
139012
139012
139012
139012
139013
139013
139013
139013
139013
139013
139013
139013
139013
139013
139013
139013
139013
139013
139013
139013
139013
139013
139013
139013
139014
139014
139014
139014
139014
139014
139014
139014
139014
139014
139014
139014
139014
139014
139014
139014
139014
139014
139014
139014
139014
139014
139014
139014
139014
139014
139014
139014
139014
139014
139014
139014
139014
139014
139014
139014
139014
139014
139014
139014
139014
139014
139014
139014
139014
139014
139014
139014
139014
139014
139014
139014
139014
139014
139014
139014
139014
139014
139014
139014
139014
139015
139015
139015
138718
138717
138717
138716
138715
138714
138713
138711
138709
138707
138705
138703
138700
138697
138694
138691
138687
138684
138680
138676
138672
138668
138664
138659
138655
138650
138645
138640
138635
138630
138625
138620
138615
138609
138604
138599
138593
138588
138582
138577
138571
138566
138560
138555
138549
138544
138538
138533
138528
138522
138517
138512
138507
138502
138497
138491
138486
138482
138477
138472
138467
138463
138458
138453
138449
138445
138440
138436
138432
138428
138424
138420
138416
138412
138408
138404
138401
138397
138394
138390
138387
138384
138380
138377
138374
138371
138368
138365
138362
138360
138357
138354
138352
138349
138347
138344
138342
138339
138337
138335
138333
138330
138328
138326
138324
138322
138320
138318
138316
138315
138313
138311
138309
138308
138306
138304
138303
138301
138300
138298
138296
138295
138294
138292
138291
138289
138288
138287
138285
138284
138283
138281
138280
138279
138278
138276
138275
138274
138273
138272
138270
138269
138268
138267
138266
138265
138264
138263
138261
138260
138259
138258
138257
138256
138255
138254
138253
138252
138251
138250
138249
138248
138247
138246
138246
138245
138244
138243
138242
138241
138240
138239
138238
138238
138237
138236
138235
138234
138234
138233
138232
138231
138231
138230
138229
138229
138228
138227
138227
138226
138225
138225
138224
138224
138223
138223
138222
138222
138221
138221
138220
138220
138219
138219
138218
138218
138218
138217
138217
138217
138216
138216
138216
138215
138215
138215
138215
138214
138214
138214
138214
138213
138213
138213
138213
138212
138212
138212
138212
138212
138212
138211
138211
138211
138211
138211
138211
138210
138210
138210
138210
138210
138210
138210
138209
138209
138209
138209
138209
138209
138209
138208
138208
138208
138208
138208
138208
138207
138207
138207
138207
138207
138207
138207
138206
138206
138206
138206
138206
138206
138206
138205
138205
138205
138205
138205
138205
138205
138205
138204
138204
138204
138204
138204
138204
138204
138204
138204
138204
138204
138204
138204
138203
138203
138203
138203
138203
138203
138203
138203
138203
138203
138203
138203
138204
138204
138204
138204
138204
138204
138204
138204
138204
138204
138204
138204
138205
138205
138205
138205
138205
138205
138205
138205
138206
138206
138206
138206
138206
138206
138207
138207
138207
138207
138207
138208
138208
138208
138208
138209
138209
138209
138209
138209
138210
138210
138210
138210
138211
138211
138211
138211
138212
138212
138212
138212
138212
138213
138213
138213
138213
138214
138214
138214
138214
138215
138215
138215
138215
138215
138216
138216
138216
138216
138217
138217
138217
138217
138217
138218
138218
138218
138218
138218
138218
138219
138219
138219
138219
138219
138219
138220
138220
138220
138220
138220
138220
138220
138221
138221
138221
138221
138221
138221
138221
138221
138222
138222
138222
138222
138222
138222
138222
138222
138222
138222
138223
138223
138223
138223
138223
138223
138223
138223
138223
138223
138223
138223
138223
138224
138224
138224
138224
138224
138224
138224
138224
138224
138224
138224
138224
138224
138224
138224
138224
138224
138224
138224
138224
138224
138225
138225
138225
138225
138225
138225
138225
138225
138225
138225
138225
138225
138225
138225
138225
138225
138225
138225
138225
138225
138225
138225
138225
138225
138225
138225
138225
138225
138225
138225
138225
138225
138225
138225
138225
138225
138225
138225
138225
138225
138225
138225
138225
138225
138225
138225
138225
138225
138225
138225
138225
138225
138225
138225
138225
138225
138225
138225
138225
138225
138225
138225
137929
137929
137929
137928
137927
137926
137925
137923
137921
137919
137917
137914
137912
137909
137906
137903
137899
137896
137892
137888
137884
137880
137876
137871
137867
137862
137857
137852
137847
137842
137837
137832
137827
137821
137816
137811
137805
137800
137794
137789
137783
137778
137773
137767
137762
137756
137751
137745
137740
137735
137730
137724
137719
137714
137709
137704
137699
137694
137689
137685
137680
137675
137671
137666
137662
137657
137653
137649
137645
137641
137637
137633
137629
137625
137621
137617
137614
137610
137607
137603
137600
137597
137594
137590
137587
137584
137581
137579
137576
137573
137570
137568
137565
137562
137560
137557
137555
137553
137550
137548
137546
137544
137542
137540
137538
137536
137534
137532
137530
137528
137526
137525
137523
137521
137520
137518
137516
137515
137513
137512
137510
137509
137507
137506
137504
137503
137502
137500
137499
137498
137496
137495
137494
137493
137491
137490
137489
137488
137487
137485
137484
137483
137482
137481
137480
137479
137478
137476
137475
137474
137473
137472
137471
137470
137469
137468
137467
137466
137465
137464
137463
137462
137461
137460
137460
137459
137458
137457
137456
137455
137454
137453
137453
137452
137451
137450
137449
137449
137448
137447
137446
137446
137445
137444
137443
137443
137442
137441
137441
137440
137440
137439
137438
137438
137437
137437
137436
137436
137435
137435
137434
137434
137433
137433
137433
137432
137432
137431
137431
137431
137430
137430
137430
137430
137429
137429
137429
137428
137428
137428
137428
137427
137427
137427
137427
137427
137426
137426
137426
137426
137426
137426
137425
137425
137425
137425
137425
137425
137424
137424
137424
137424
137424
137424
137424
137423
137423
137423
137423
137423
137423
137423
137422
137422
137422
137422
137422
137422
137421
137421
137421
137421
137421
137421
137421
137420
137420
137420
137420
137420
137420
137420
137419
137419
137419
137419
137419
137419
137419
137419
137419
137418
137418
137418
137418
137418
137418
137418
137418
137418
137418
137418
137418
137418
137418
137418
137418
137418
137418
137418
137418
137418
137418
137418
137418
137418
137418
137418
137418
137418
137418
137418
137418
137418
137418
137419
137419
137419
137419
137419
137419
137419
137420
137420
137420
137420
137420
137420
137421
137421
137421
137421
137421
137421
137422
137422
137422
137422
137422
137423
137423
137423
137423
137424
137424
137424
137424
137425
137425
137425
137425
137425
137426
137426
137426
137426
137427
137427
137427
137427
137428
137428
137428
137428
137428
137429
137429
137429
137429
137430
137430
137430
137430
137430
137431
137431
137431
137431
137431
137432
137432
137432
137432
137432
137433
137433
137433
137433
137433
137433
137434
137434
137434
137434
137434
137434
137434
137435
137435
137435
137435
137435
137435
137435
137435
137436
137436
137436
137436
137436
137436
137436
137436
137436
137437
137437
137437
137437
137437
137437
137437
137437
137437
137437
137437
137437
137437
137438
137438
137438
137438
137438
137438
137438
137438
137438
137438
137438
137438
137438
137438
137438
137438
137438
137438
137438
137438
137439
137439
137439
137439
137439
137439
137439
137439
137439
137439
137439
137439
137439
137439
137439
137439
137439
137439
137439
137439
137439
137439
137439
137439
137439
137439
137439
137439
137439
137439
137439
137439
137439
137439
137439
137439
137439
137439
137439
137439
137439
137439
137439
137439
137439
137439
137439
137439
137439
137440
137440
137440
137440
137440
137440
137440
137440
137440
137440
137440
137440
137440
137440
137440
137440
137145
137145
137144
137143
137142
137141
137140
137138
137136
137134
137132
137130
137127
137124
137121
137118
137115
137111
137107
137103
137099
137095
137091
137086
137082
137077
137072
137068
137063
137058
137052
137047
137042
137037
137031
137026
137021
137015
137010
137004
136999
136993
136988
136983
136977
136972
136966
136961
136956
136950
136945
136940
136935
136930
136925
136920
136915
136910
136905
136900
136896
136891
136887
136882
136878
136873
136869
136865
136861
136857
136853
136849
136845
136841
136837
136834
136830
136826
136823
136820
136816
136813
136810
136807
136804
136801
136798
136795
136792
136789
136787
136784
136781
136779
136776
136774
136772
136769
136767
136765
136763
136760
136758
136756
136754
136752
136750
136749
136747
136745
136743
136741
136740
136738
136736
136735
136733
136732
136730
136728
136727
136726
136724
136723
136721
136720
136719
136717
136716
136715
136713
136712
136711
136710
136708
136707
136706
136705
136704
136702
136701
136700
136699
136698
136697
136696
136695
136694
136692
136691
136690
136689
136688
136687
136686
136685
136684
136683
136682
136681
136680
136679
136679
136678
136677
136676
136675
136674
136673
136672
136671
136671
136670
136669
136668
136667
136667
136666
136665
136664
136664
136663
136662
136661
136661
136660
136659
136659
136658
136657
136657
136656
136656
136655
136655
136654
136654
136653
136653
136652
136652
136651
136651
136650
136650
136650
136649
136649
136648
136648
136648
136647
136647
136647
136647
136646
136646
136646
136646
136645
136645
136645
136645
136644
136644
136644
136644
136644
136643
136643
136643
136643
136643
136643
136642
136642
136642
136642
136642
136642
136642
136641
136641
136641
136641
136641
136641
136640
136640
136640
136640
136640
136640
136640
136639
136639
136639
136639
136639
136639
136639
136638
136638
136638
136638
136638
136638
136638
136637
136637
136637
136637
136637
136637
136637
136636
136636
136636
136636
136636
136636
136636
136636
136636
136636
136635
136635
136635
136635
136635
136635
136635
136635
136635
136635
136635
136635
136635
136635
136635
136635
136635
136635
136635
136635
136635
136635
136635
136635
136635
136635
136636
136636
136636
136636
136636
136636
136636
136636
136636
136637
136637
136637
136637
136637
136637
136638
136638
136638
136638
136638
136638
136639
136639
136639
136639
136639
136640
136640
136640
136640
136641
136641
136641
136641
136641
136642
136642
136642
136642
136643
136643
136643
136643
136644
136644
136644
136644
136644
136645
136645
136645
136645
136646
136646
136646
136646
136647
136647
136647
136647
136647
136648
136648
136648
136648
136648
136649
136649
136649
136649
136649
136650
136650
136650
136650
136650
136650
136651
136651
136651
136651
136651
136651
136652
136652
136652
136652
136652
136652
136652
136652
136653
136653
136653
136653
136653
136653
136653
136653
136653
136654
136654
136654
136654
136654
136654
136654
136654
136654
136654
136654
136654
136655
136655
136655
136655
136655
136655
136655
136655
136655
136655
136655
136655
136655
136655
136655
136655
136656
136656
136656
136656
136656
136656
136656
136656
136656
136656
136656
136656
136656
136656
136656
136656
136656
136656
136656
136656
136656
136656
136656
136656
136656
136656
136656
136656
136656
136656
136656
136656
136657
136657
136657
136657
136657
136657
136657
136657
136657
136657
136657
136657
136657
136657
136657
136657
136657
136657
136657
136657
136657
136657
136657
136657
136657
136657
136657
136657
136657
136657
136657
136657
136657
136657
136657
136657
136657
136657
136657
136657
136657
136363
136363
136363
136362
136361
136360
136359
136357
136355
136353
136351
136348
136346
136343
136340
136337
136333
136330
136326
136322
136318
136314
136309
136305
136300
136296
136291
136286
136281
136276
136271
136266
136261
136255
136250
136245
136239
136234
136228
136223
136218
136212
136207
136201
136196
136190
136185
136180
136175
136169
136164
136159
136154
136149
136144
136139
136134
136129
136124
136119
136115
136110
136106
136101
136097
136092
136088
136084
136080
136076
136072
136068
136064
136060
136056
136053
136049
136046
136042
136039
136036
136032
136029
136026
136023
136020
136017
136014
136012
136009
136006
136004
136001
135998
135996
135994
135991
135989
135987
135984
135982
135980
135978
135976
135974
135972
135970
135968
135967
135965
135963
135961
135960
135958
135956
135955
135953
135951
135950
135948
135947
135945
135944
135943
135941
135940
135939
135937
135936
135935
135933
135932
135931
135930
135928
135927
135926
135925
135924
135923
135921
135920
135919
135918
135917
135916
135915
135914
135913
135912
135911
135910
135909
135908
135907
135906
135905
135904
135903
135902
135901
135900
135899
135898
135897
135896
135895
135894
135893
135893
135892
135891
135890
135889
135889
135888
135887
135886
135885
135885
135884
135883
135883
135882
135881
135880
135880
135879
135879
135878
135877
135877
135876
135876
135875
135875
135874
135874
135873
135873
135872
135872
135871
135871
135870
135870
135870
135869
135869
135869
135868
135868
135868
135867
135867
135867
135867
135866
135866
135866
135866
135865
135865
135865
135865
135865
135864
135864
135864
135864
135864
135863
135863
135863
135863
135863
135863
135863
135862
135862
135862
135862
135862
135862
135861
135861
135861
135861
135861
135861
135861
135860
135860
135860
135860
135860
135860
135860
135859
135859
135859
135859
135859
135859
135859
135858
135858
135858
135858
135858
135858
135858
135857
135857
135857
135857
135857
135857
135857
135857
135856
135856
135856
135856
135856
135856
135856
135856
135856
135856
135856
135856
135856
135856
135856
135856
135856
135856
135856
135856
135856
135856
135856
135856
135856
135856
135856
135856
135856
135856
135856
135856
135856
135856
135856
135857
135857
135857
135857
135857
135857
135857
135857
135858
135858
135858
135858
135858
135858
135859
135859
135859
135859
135859
135860
135860
135860
135860
135860
135861
135861
135861
135861
135862
135862
135862
135862
135862
135863
135863
135863
135863
135864
135864
135864
135864
135865
135865
135865
135865
135865
135866
135866
135866
135866
135867
135867
135867
135867
135868
135868
135868
135868
135868
135869
135869
135869
135869
135869
135870
135870
135870
135870
135870
135870
135871
135871
135871
135871
135871
135871
135872
135872
135872
135872
135872
135872
135872
135873
135873
135873
135873
135873
135873
135873
135873
135874
135874
135874
135874
135874
135874
135874
135874
135874
135874
135875
135875
135875
135875
135875
135875
135875
135875
135875
135875
135875
135875
135875
135875
135876
135876
135876
135876
135876
135876
135876
135876
135876
135876
135876
135876
135876
135876
135876
135876
135876
135876
135876
135876
135876
135876
135877
135877
135877
135877
135877
135877
135877
135877
135877
135877
135877
135877
135877
135877
135877
135877
135877
135877
135877
135877
135877
135877
135877
135877
135877
135877
135877
135877
135877
135877
135877
135877
135877
135877
135877
135877
135877
135877
135877
135877
135877
135877
135877
135877
135877
135877
135877
135877
135877
135877
135877
135877
135877
135877
135877
135877
135877
135877
135877
135877
135585
135585
135585
135584
135583
135582
135581
135579
135577
135575
135573
135570
135568
135565
135562
135559
135555
135552
135548
135544
135540
135536
135531
135527
135522
135518
135513
135508
135503
135498
135493
135488
135483
135477
135472
135467
135461
135456
135450
135445
135439
135434
135429
135423
135418
135412
135407
135402
135396
135391
135386
135381
135376
135371
135366
135361
135356
135351
135346
135341
135337
135332
135328
135323
135319
135314
135310
135306
135302
135298
135294
135290
135286
135282
135279
135275
135272
135268
135265
135261
135258
135255
135252
135249
135246
135243
135240
135237
135234
135232
135229
135226
135224
135221
135219
135216
135214
135212
135210
135207
135205
135203
135201
135199
135197
135195
135193
135191
135189
135188
135186
135184
135183
135181
135179
135178
135176
135175
135173
135172
135170
135169
135167
135166
135164
135163
135162
135160
135159
135158
135157
135155
135154
135153
135152
135150
135149
135148
135147
135146
135145
135144
135142
135141
135140
135139
135138
135137
135136
135135
135134
135133
135132
135131
135130
135129
135128
135127
135126
135125
135124
135123
135122
135121
135121
135120
135119
135118
135117
135116
135115
135114
135114
135113
135112
135111
135111
135110
135109
135108
135108
135107
135106
135105
135105
135104
135103
135103
135102
135102
135101
135100
135100
135099
135099
135098
135098
135097
135097
135096
135096
135095
135095
135095
135094
135094
135093
135093
135093
135092
135092
135092
135091
135091
135091
135091
135090
135090
135090
135090
135089
135089
135089
135089
135088
135088
135088
135088
135088
135088
135087
135087
135087
135087
135087
135087
135086
135086
135086
135086
135086
135086
135085
135085
135085
135085
135085
135085
135085
135084
135084
135084
135084
135084
135084
135084
135083
135083
135083
135083
135083
135083
135083
135082
135082
135082
135082
135082
135082
135082
135081
135081
135081
135081
135081
135081
135081
135081
135080
135080
135080
135080
135080
135080
135080
135080
135080
135080
135080
135080
135079
135079
135079
135079
135079
135079
135079
135079
135079
135079
135079
135079
135079
135079
135079
135079
135080
135080
135080
135080
135080
135080
135080
135080
135080
135080
135080
135081
135081
135081
135081
135081
135081
135081
135082
135082
135082
135082
135082
135082
135083
135083
135083
135083
135083
135084
135084
135084
135084
135084
135085
135085
135085
135085
135085
135086
135086
135086
135086
135087
135087
135087
135087
135088
135088
135088
135088
135088
135089
135089
135089
135089
135090
135090
135090
135090
135091
135091
135091
135091
135091
135092
135092
135092
135092
135092
135093
135093
135093
135093
135093
135094
135094
135094
135094
135094
135094
135095
135095
135095
135095
135095
135095
135096
135096
135096
135096
135096
135096
135096
135097
135097
135097
135097
135097
135097
135097
135097
135097
135098
135098
135098
135098
135098
135098
135098
135098
135098
135098
135098
135099
135099
135099
135099
135099
135099
135099
135099
135099
135099
135099
135099
135099
135099
135099
135099
135100
135100
135100
135100
135100
135100
135100
135100
135100
135100
135100
135100
135100
135100
135100
135100
135100
135100
135100
135100
135100
135100
135100
135100
135100
135100
135100
135100
135101
135101
135101
135101
135101
135101
135101
135101
135101
135101
135101
135101
135101
135101
135101
135101
135101
135101
135101
135101
135101
135101
135101
135101
135101
135101
135101
135101
135101
135101
135101
135101
135101
135101
135101
135101
135101
135101
135101
135101
135101
135101
135101
135101
135101
135101
135101
135101
134811
134811
134810
134809
134808
134807
134806
134804
134802
134800
134798
134796
134793
134790
134787
134784
134780
134777
134773
134769
134765
134761
134757
134752
134747
134743
134738
134733
134728
134723
134718
134713
134708
134702
134697
134692
134686
134681
134675
134670
134664
134659
134654
134648
134643
134637
134632
134627
134621
134616
134611
134606
134601
134596
134591
134586
134581
134576
134571
134567
134562
134557
134553
134548
134544
134540
134535
134531
134527
134523
134519
134515
134512
134508
134504
134501
134497
134494
134490
134487
134484
134481
134477
134474
134471
134468
134466
134463
134460
134457
134455
134452
134450
134447
134445
134442
134440
134438
134435
134433
134431
134429
134427
134425
134423
134421
134419
134417
134416
134414
134412
134410
134409
134407
134405
134404
134402
134401
134399
134398
134396
134395
134393
134392
134391
134389
134388
134387
134385
134384
134383
134382
134380
134379
134378
134377
134376
134375
134373
134372
134371
134370
134369
134368
134367
134366
134365
134364
134363
134362
134361
134360
134359
134358
134357
134356
134355
134354
134353
134352
134351
134350
134349
134348
134347
134346
134345
134345
134344
134343
134342
134341
134340
134340
134339
134338
134337
134336
134336
134335
134334
134334
134333
134332
134332
134331
134330
134330
134329
134328
134328
134327
134327
134326
134326
134325
134325
134324
134324
134323
134323
134322
134322
134321
134321
134321
134320
134320
134319
134319
134319
134319
134318
134318
134318
134317
134317
134317
134317
134316
134316
134316
134316
134315
134315
134315
134315
134315
134315
134314
134314
134314
134314
134314
134314
134313
134313
134313
134313
134313
134313
134312
134312
134312
134312
134312
134312
134312
134311
134311
134311
134311
134311
134311
134311
134310
134310
134310
134310
134310
134310
134310
134309
134309
134309
134309
134309
134309
134309
134308
134308
134308
134308
134308
134308
134308
134308
134307
134307
134307
134307
134307
134307
134307
134307
134307
134307
134307
134306
134306
134306
134306
134306
134306
134306
134306
134306
134306
134306
134306
134306
134306
134306
134306
134306
134306
134306
134306
134307
134307
134307
134307
134307
134307
134307
134307
134307
134307
134308
134308
134308
134308
134308
134308
134308
134309
134309
134309
134309
134309
134309
134310
134310
134310
134310
134310
134311
134311
134311
134311
134311
134312
134312
134312
134312
134313
134313
134313
134313
134314
134314
134314
134314
134314
134315
134315
134315
134315
134316
134316
134316
134316
134317
134317
134317
134317
134317
134318
134318
134318
134318
134319
134319
134319
134319
134319
134320
134320
134320
134320
134320
134320
134321
134321
134321
134321
134321
134322
134322
134322
134322
134322
134322
134322
134323
134323
134323
134323
134323
134323
134323
134324
134324
134324
134324
134324
134324
134324
134324
134324
134324
134325
134325
134325
134325
134325
134325
134325
134325
134325
134325
134325
134326
134326
134326
134326
134326
134326
134326
134326
134326
134326
134326
134326
134326
134326
134326
134326
134326
134327
134327
134327
134327
134327
134327
134327
134327
134327
134327
134327
134327
134327
134327
134327
134327
134327
134327
134327
134327
134327
134327
134327
134327
134327
134327
134327
134327
134327
134327
134327
134327
134327
134328
134328
134328
134328
134328
134328
134328
134328
134328
134328
134328
134328
134328
134328
134328
134328
134328
134328
134328
134328
134328
134328
134328
134328
134328
134328
134328
134328
134328
134328
134328
134328
134328
134328
134328
134328
134328
134328
134328
134328
134039
134039
134039
134038
134037
134036
134035
134033
134031
134029
134027
134024
134022
134019
134016
134012
134009
134005
134002
133998
133994
133989
133985
133980
133976
133971
133966
133961
133956
133951
133946
133941
133936
133931
133925
133920
133914
133909
133904
133898
133893
133887
133882
133876
133871
133866
133860
133855
133850
133844
133839
133834
133829
133824
133819
133814
133809
133804
133799
133795
133790
133786
133781
133777
133772
133768
133764
133760
133756
133752
133748
133744
133740
133736
133733
133729
133726
133722
133719
133716
133712
133709
133706
133703
133700
133697
133694
133692
133689
133686
133683
133681
133678
133676
133674
133671
133669
133667
133664
133662
133660
133658
133656
133654
133652
133650
133648
133647
133645
133643
133641
133640
133638
133636
133635
133633
133632
133630
133629
133627
133626
133624
133623
133621
133620
133619
133617
133616
133615
133614
133612
133611
133610
133609
133608
133606
133605
133604
133603
133602
133601
133600
133599
133597
133596
133595
133594
133593
133592
133591
133590
133589
133588
133587
133586
133585
133584
133583
133582
133582
133581
133580
133579
133578
133577
133576
133575
133574
133574
133573
133572
133571
133570
133569
133569
133568
133567
133566
133566
133565
133564
133563
133563
133562
133561
133561
133560
133560
133559
133558
133558
133557
133557
133556
133556
133555
133554
133554
133554
133553
133553
133552
133552
133551
133551
133551
133550
133550
133549
133549
133549
133549
133548
133548
133548
133547
133547
133547
133547
133546
133546
133546
133546
133546
133545
133545
133545
133545
133545
133544
133544
133544
133544
133544
133544
133543
133543
133543
133543
133543
133543
133543
133542
133542
133542
133542
133542
133542
133541
133541
133541
133541
133541
133541
133541
133540
133540
133540
133540
133540
133540
133540
133539
133539
133539
133539
133539
133539
133539
133538
133538
133538
133538
133538
133538
133538
133538
133537
133537
133537
133537
133537
133537
133537
133537
133537
133537
133537
133537
133536
133536
133536
133536
133536
133536
133536
133536
133536
133536
133536
133536
133536
133536
133536
133536
133536
133536
133537
133537
133537
133537
133537
133537
133537
133537
133537
133537
133537
133538
133538
133538
133538
133538
133538
133538
133539
133539
133539
133539
133539
133540
133540
133540
133540
133540
133540
133541
133541
133541
133541
133542
133542
133542
133542
133542
133543
133543
133543
133543
133544
133544
133544
133544
133544
133545
133545
133545
133545
133546
133546
133546
133546
133547
133547
133547
133547
133547
133548
133548
133548
133548
133549
133549
133549
133549
133549
133550
133550
133550
133550
133550
133551
133551
133551
133551
133551
133551
133552
133552
133552
133552
133552
133552
133552
133553
133553
133553
133553
133553
133553
133553
133554
133554
133554
133554
133554
133554
133554
133554
133554
133555
133555
133555
133555
133555
133555
133555
133555
133555
133555
133555
133555
133556
133556
133556
133556
133556
133556
133556
133556
133556
133556
133556
133556
133556
133556
133556
133556
133556
133557
133557
133557
133557
133557
133557
133557
133557
133557
133557
133557
133557
133557
133557
133557
133557
133557
133557
133557
133557
133557
133557
133557
133557
133557
133557
133557
133557
133557
133557
133557
133557
133557
133558
133558
133558
133558
133558
133558
133558
133558
133558
133558
133558
133558
133558
133558
133558
133558
133558
133558
133558
133558
133558
133558
133558
133558
133558
133558
133558
133558
133558
133558
133558
133558
133558
133558
133558
133558
133558
133558
133558
133558
133272
133271
133271
133270
133269
133268
133267
133265
133263
133261
133259
133256
133254
133251
133248
133244
133241
133237
133233
133229
133225
133221
133217
133212
133208
133203
133198
133193
133188
133183
133178
133173
133167
133162
133157
133151
133146
133140
133135
133129
133124
133118
133113
133108
133102
133097
133091
133086
133081
133076
133070
133065
133060
133055
133050
133045
133040
133036
133031
133026
133022
133017
133012
133008
133004
132999
132995