/*--------------------------------*- C++ -*----------------------------------*\
| =========                 |                                                 |
| \\      /  F ield         | OpenFOAM: The Open Source CFD Toolbox           |
|  \\    /   O peration     | Version:  v2012                                 |
|   \\  /    A nd           | Website:  www.openfoam.com                      |
|    \\/     M anipulation  |                                                 |
\*---------------------------------------------------------------------------*/
FoamFile
{
    version     2.0;
    format      ascii;
    class       volScalarField;
    location    "50";
    object      p_rgh;
}
// * * * * * * * * * * * * * * * * * * * * * * * * * * * * * * * * * * * * * //

dimensions      [1 -1 -2 0 0 0 0];


internalField   nonuniform List<scalar> 
65536
(
39905.8
39905.6
39905.1
39904.4
39903.5
39902.3
39900.9
39899.3
39897.5
39895.4
39893.2
39890.7
39888
39885.1
39882.1
39878.8
39875.4
39871.8
39868
39864.1
39860
39855.8
39851.4
39847
39842.4
39837.6
39832.8
39827.9
39822.9
39817.8
39812.6
39807.4
39802.1
39796.7
39791.4
39785.9
39780.5
39775
39769.5
39764
39758.4
39752.9
39747.4
39741.9
39736.4
39730.9
39725.5
39720
39714.6
39709.3
39704
39698.7
39693.5
39688.3
39683.2
39678.1
39673.1
39668.1
39663.2
39658.4
39653.6
39648.9
39644.3
39639.7
39635.2
39630.8
39626.4
39622.1
39617.9
39613.8
39609.7
39605.7
39601.7
39597.9
39594.1
39590.3
39586.7
39583.1
39579.6
39576.1
39572.7
39569.4
39566.2
39563
39559.9
39556.8
39553.8
39550.9
39548
39545.2
39542.4
39539.7
39537.1
39534.5
39532
39529.5
39527.1
39524.7
39522.4
39520.1
39517.9
39515.7
39513.6
39511.5
39509.4
39507.4
39505.4
39503.5
39501.6
39499.7
39497.9
39496.1
39494.4
39492.7
39491
39489.3
39487.7
39486.1
39484.5
39483
39481.5
39480
39478.5
39477
39475.6
39474.2
39472.8
39471.5
39470.1
39468.8
39467.5
39466.2
39464.9
39463.6
39462.4
39461.1
39459.9
39458.7
39457.5
39456.3
39455.2
39454
39452.9
39451.7
39450.6
39449.5
39448.4
39447.3
39446.2
39445.1
39444.1
39443
39441.9
39440.9
39439.9
39438.9
39437.9
39436.9
39435.9
39434.9
39433.9
39432.9
39432
39431
39430.1
39429.2
39428.3
39427.4
39426.5
39425.6
39424.7
39423.9
39423
39422.2
39421.4
39420.5
39419.7
39419
39418.2
39417.4
39416.7
39415.9
39415.2
39414.5
39413.8
39413.1
39412.4
39411.8
39411.2
39410.5
39409.9
39409.3
39408.7
39408.2
39407.6
39407.1
39406.5
39406
39405.5
39405.1
39404.6
39404.1
39403.7
39403.3
39402.9
39402.5
39402.1
39401.7
39401.3
39401
39400.7
39400.3
39400
39399.7
39399.4
39399.2
39398.9
39398.6
39398.4
39398.1
39397.9
39397.7
39397.4
39397.2
39397
39396.8
39396.6
39396.4
39396.3
39396.1
39395.9
39395.7
39395.6
39395.4
39395.2
39395.1
39394.9
39394.8
39394.6
39394.5
39394.3
39394.2
39394
39393.9
39393.7
39393.6
39393.4
39393.3
39393.1
39393
39392.8
39392.7
39392.5
39392.4
39392.2
39392.1
39391.9
39391.8
39391.6
39391.5
39391.3
39391.2
39391
39390.9
39390.7
39390.6
39390.4
39390.3
39390.1
39390
39389.8
39389.7
39389.6
39389.4
39389.3
39389.2
39389.1
39388.9
39388.8
39388.7
39388.6
39388.5
39388.4
39388.3
39388.2
39388.2
39388.1
39388
39388
39387.9
39387.9
39387.8
39387.8
39387.7
39387.7
39387.7
39387.7
39387.7
39387.7
39387.7
39387.7
39387.7
39387.7
39387.8
39387.8
39387.9
39387.9
39388
39388
39388.1
39388.2
39388.3
39388.4
39388.5
39388.6
39388.7
39388.8
39388.9
39389
39389.2
39389.3
39389.5
39389.6
39389.8
39389.9
39390.1
39390.3
39390.4
39390.6
39390.8
39391
39391.2
39391.4
39391.6
39391.8
39392
39392.2
39392.4
39392.6
39392.8
39393
39393.3
39393.5
39393.7
39394
39394.2
39394.4
39394.6
39394.9
39395.1
39395.4
39395.6
39395.8
39396.1
39396.3
39396.5
39396.8
39397
39397.3
39397.5
39397.7
39398
39398.2
39398.4
39398.7
39398.9
39399.1
39399.4
39399.6
39399.8
39400
39400.2
39400.4
39400.7
39400.9
39401.1
39401.3
39401.5
39401.7
39401.9
39402.1
39402.3
39402.4
39402.6
39402.8
39403
39403.2
39403.3
39403.5
39403.7
39403.8
39404
39404.1
39404.3
39404.4
39404.6
39404.7
39404.9
39405
39405.1
39405.3
39405.4
39405.5
39405.6
39405.7
39405.9
39406
39406.1
39406.2
39406.3
39406.4
39406.5
39406.6
39406.7
39406.8
39406.9
39407
39407
39407.1
39407.2
39407.3
39407.4
39407.4
39407.5
39407.6
39407.7
39407.7
39407.8
39407.9
39407.9
39408
39408
39408.1
39408.2
39408.2
39408.3
39408.3
39408.4
39408.4
39408.5
39408.5
39408.6
39408.6
39408.6
39408.7
39408.7
39408.8
39408.8
39408.8
39408.9
39408.9
39409
39409
39409
39409.1
39409.1
39409.1
39409.1
39409.2
39409.2
39409.2
39409.3
39409.3
39409.3
39409.3
39409.4
39409.4
39409.4
39409.4
39409.4
39409.5
39409.5
39409.5
39409.5
39409.5
39409.6
39409.6
39409.6
39409.6
39409.6
39409.6
39409.6
39409.7
39409.7
39409.7
39409.7
39409.7
39409.7
39409.7
39409.7
39409.7
39409.8
39409.8
39409.8
39409.8
39409.8
39409.8
39409.8
39409.8
39409.8
39409.8
39409.8
39409.8
39409.8
39409.8
39409.8
39409.8
39409.8
39409.8
39409.8
39409.8
39409.8
39902.8
39902.6
39902.1
39901.4
39900.5
39899.3
39897.9
39896.3
39894.5
39892.4
39890.1
39887.7
39885
39882.1
39879
39875.8
39872.3
39868.7
39865
39861
39856.9
39852.7
39848.4
39843.9
39839.3
39834.5
39829.7
39824.8
39819.7
39814.7
39809.5
39804.2
39798.9
39793.6
39788.2
39782.8
39777.3
39771.8
39766.3
39760.8
39755.2
39749.7
39744.2
39738.7
39733.2
39727.7
39722.2
39716.8
39711.4
39706
39700.7
39695.4
39690.2
39685
39679.9
39674.8
39669.8
39664.9
39660
39655.1
39650.4
39645.7
39641
39636.4
39631.9
39627.5
39623.1
39618.9
39614.6
39610.5
39606.4
39602.4
39598.4
39594.6
39590.8
39587.1
39583.4
39579.8
39576.3
39572.8
39569.5
39566.1
39562.9
39559.7
39556.6
39553.5
39550.5
39547.6
39544.7
39541.9
39539.2
39536.5
39533.8
39531.2
39528.7
39526.2
39523.8
39521.4
39519.1
39516.8
39514.6
39512.4
39510.3
39508.2
39506.2
39504.1
39502.2
39500.2
39498.4
39496.5
39494.7
39492.9
39491.1
39489.4
39487.7
39486.1
39484.5
39482.9
39481.3
39479.7
39478.2
39476.7
39475.3
39473.8
39472.4
39471
39469.6
39468.2
39466.9
39465.5
39464.2
39462.9
39461.7
39460.4
39459.1
39457.9
39456.7
39455.5
39454.3
39453.1
39451.9
39450.8
39449.6
39448.5
39447.4
39446.3
39445.2
39444.1
39443
39441.9
39440.8
39439.8
39438.7
39437.7
39436.7
39435.6
39434.6
39433.6
39432.6
39431.7
39430.7
39429.7
39428.8
39427.8
39426.9
39426
39425.1
39424.2
39423.3
39422.4
39421.5
39420.7
39419.8
39419
39418.2
39417.3
39416.5
39415.8
39415
39414.2
39413.5
39412.7
39412
39411.3
39410.6
39409.9
39409.2
39408.6
39408
39407.3
39406.7
39406.1
39405.5
39405
39404.4
39403.9
39403.3
39402.8
39402.3
39401.9
39401.4
39400.9
39400.5
39400.1
39399.7
39399.3
39398.9
39398.5
39398.1
39397.8
39397.5
39397.1
39396.8
39396.5
39396.2
39396
39395.7
39395.4
39395.2
39394.9
39394.7
39394.5
39394.2
39394
39393.8
39393.6
39393.4
39393.2
39393.1
39392.9
39392.7
39392.5
39392.4
39392.2
39392
39391.9
39391.7
39391.6
39391.4
39391.3
39391.1
39391
39390.8
39390.7
39390.5
39390.4
39390.2
39390.1
39389.9
39389.8
39389.6
39389.5
39389.3
39389.2
39389
39388.9
39388.7
39388.6
39388.4
39388.3
39388.1
39388
39387.8
39387.6
39387.5
39387.4
39387.2
39387.1
39386.9
39386.8
39386.6
39386.5
39386.4
39386.2
39386.1
39386
39385.9
39385.7
39385.6
39385.5
39385.4
39385.3
39385.2
39385.1
39385
39385
39384.9
39384.8
39384.8
39384.7
39384.7
39384.6
39384.6
39384.5
39384.5
39384.5
39384.5
39384.5
39384.5
39384.5
39384.5
39384.5
39384.5
39384.6
39384.6
39384.7
39384.7
39384.8
39384.8
39384.9
39385
39385.1
39385.2
39385.3
39385.4
39385.5
39385.6
39385.7
39385.8
39386
39386.1
39386.3
39386.4
39386.6
39386.7
39386.9
39387.1
39387.2
39387.4
39387.6
39387.8
39388
39388.2
39388.4
39388.6
39388.8
39389
39389.2
39389.4
39389.6
39389.8
39390.1
39390.3
39390.5
39390.8
39391
39391.2
39391.5
39391.7
39391.9
39392.2
39392.4
39392.6
39392.9
39393.1
39393.3
39393.6
39393.8
39394.1
39394.3
39394.5
39394.8
39395
39395.2
39395.5
39395.7
39395.9
39396.2
39396.4
39396.6
39396.8
39397
39397.3
39397.5
39397.7
39397.9
39398.1
39398.3
39398.5
39398.7
39398.9
39399.1
39399.3
39399.4
39399.6
39399.8
39400
39400.1
39400.3
39400.5
39400.6
39400.8
39400.9
39401.1
39401.2
39401.4
39401.5
39401.7
39401.8
39401.9
39402.1
39402.2
39402.3
39402.4
39402.5
39402.7
39402.8
39402.9
39403
39403.1
39403.2
39403.3
39403.4
39403.5
39403.6
39403.7
39403.8
39403.8
39403.9
39404
39404.1
39404.2
39404.2
39404.3
39404.4
39404.5
39404.5
39404.6
39404.7
39404.7
39404.8
39404.8
39404.9
39405
39405
39405.1
39405.1
39405.2
39405.2
39405.3
39405.3
39405.4
39405.4
39405.4
39405.5
39405.5
39405.6
39405.6
39405.7
39405.7
39405.7
39405.8
39405.8
39405.8
39405.9
39405.9
39405.9
39406
39406
39406
39406
39406.1
39406.1
39406.1
39406.1
39406.2
39406.2
39406.2
39406.2
39406.2
39406.3
39406.3
39406.3
39406.3
39406.3
39406.4
39406.4
39406.4
39406.4
39406.4
39406.4
39406.4
39406.5
39406.5
39406.5
39406.5
39406.5
39406.5
39406.5
39406.5
39406.5
39406.6
39406.6
39406.6
39406.6
39406.6
39406.6
39406.6
39406.6
39406.6
39406.6
39406.6
39406.6
39406.6
39406.6
39406.6
39406.6
39406.6
39406.6
39406.6
39406.6
39406.6
39896.8
39896.6
39896.1
39895.4
39894.4
39893.3
39891.9
39890.3
39888.4
39886.4
39884.1
39881.6
39878.9
39876
39872.9
39869.7
39866.2
39862.6
39858.8
39854.9
39850.8
39846.6
39842.2
39837.7
39833.1
39828.3
39823.5
39818.5
39813.5
39808.4
39803.2
39797.9
39792.6
39787.3
39781.9
39776.4
39770.9
39765.4
39759.9
39754.4
39748.8
39743.3
39737.8
39732.2
39726.7
39721.2
39715.8
39710.3
39704.9
39699.6
39694.2
39689
39683.7
39678.5
39673.4
39668.3
39663.3
39658.4
39653.5
39648.6
39643.8
39639.1
39634.5
39629.9
39625.4
39621
39616.6
39612.3
39608.1
39603.9
39599.9
39595.8
39591.9
39588
39584.2
39580.5
39576.9
39573.3
39569.7
39566.3
39562.9
39559.6
39556.4
39553.2
39550.1
39547
39544
39541.1
39538.2
39535.4
39532.6
39529.9
39527.3
39524.7
39522.2
39519.7
39517.3
39514.9
39512.6
39510.3
39508.1
39505.9
39503.8
39501.7
39499.7
39497.7
39495.7
39493.8
39491.9
39490
39488.2
39486.4
39484.7
39482.9
39481.3
39479.6
39478
39476.4
39474.8
39473.3
39471.8
39470.3
39468.8
39467.3
39465.9
39464.5
39463.1
39461.8
39460.4
39459.1
39457.8
39456.5
39455.2
39453.9
39452.7
39451.5
39450.2
39449
39447.8
39446.7
39445.5
39444.3
39443.2
39442.1
39440.9
39439.8
39438.7
39437.6
39436.5
39435.5
39434.4
39433.4
39432.3
39431.3
39430.2
39429.2
39428.2
39427.2
39426.2
39425.2
39424.3
39423.3
39422.4
39421.4
39420.5
39419.6
39418.7
39417.8
39416.9
39416
39415.1
39414.3
39413.4
39412.6
39411.7
39410.9
39410.1
39409.4
39408.6
39407.8
39407.1
39406.3
39405.6
39404.9
39404.2
39403.5
39402.9
39402.2
39401.6
39400.9
39400.3
39399.7
39399.1
39398.6
39398
39397.5
39397
39396.4
39395.9
39395.5
39395
39394.5
39394.1
39393.7
39393.3
39392.9
39392.5
39392.1
39391.8
39391.4
39391.1
39390.7
39390.4
39390.1
39389.8
39389.6
39389.3
39389
39388.8
39388.5
39388.3
39388.1
39387.9
39387.6
39387.4
39387.2
39387
39386.9
39386.7
39386.5
39386.3
39386.1
39386
39385.8
39385.7
39385.5
39385.3
39385.2
39385
39384.9
39384.7
39384.6
39384.4
39384.3
39384.1
39384
39383.8
39383.7
39383.5
39383.4
39383.2
39383.1
39382.9
39382.8
39382.6
39382.5
39382.3
39382.2
39382
39381.9
39381.7
39381.6
39381.4
39381.3
39381.1
39381
39380.8
39380.7
39380.5
39380.4
39380.2
39380.1
39380
39379.8
39379.7
39379.6
39379.5
39379.4
39379.2
39379.1
39379
39378.9
39378.8
39378.7
39378.7
39378.6
39378.5
39378.4
39378.4
39378.3
39378.3
39378.2
39378.2
39378.1
39378.1
39378.1
39378.1
39378.1
39378.1
39378.1
39378.1
39378.1
39378.1
39378.2
39378.2
39378.3
39378.3
39378.4
39378.4
39378.5
39378.6
39378.7
39378.8
39378.9
39379
39379.1
39379.2
39379.3
39379.5
39379.6
39379.7
39379.9
39380
39380.2
39380.3
39380.5
39380.7
39380.8
39381
39381.2
39381.4
39381.6
39381.8
39382
39382.2
39382.4
39382.6
39382.8
39383
39383.2
39383.5
39383.7
39383.9
39384.1
39384.4
39384.6
39384.8
39385.1
39385.3
39385.5
39385.8
39386
39386.2
39386.5
39386.7
39387
39387.2
39387.4
39387.7
39387.9
39388.2
39388.4
39388.6
39388.9
39389.1
39389.3
39389.5
39389.8
39390
39390.2
39390.4
39390.7
39390.9
39391.1
39391.3
39391.5
39391.7
39391.9
39392.1
39392.3
39392.5
39392.7
39392.9
39393.1
39393.2
39393.4
39393.6
39393.8
39393.9
39394.1
39394.2
39394.4
39394.6
39394.7
39394.9
39395
39395.1
39395.3
39395.4
39395.5
39395.7
39395.8
39395.9
39396
39396.2
39396.3
39396.4
39396.5
39396.6
39396.7
39396.8
39396.9
39397
39397.1
39397.2
39397.3
39397.4
39397.5
39397.5
39397.6
39397.7
39397.8
39397.9
39397.9
39398
39398.1
39398.1
39398.2
39398.3
39398.3
39398.4
39398.5
39398.5
39398.6
39398.6
39398.7
39398.7
39398.8
39398.8
39398.9
39398.9
39399
39399
39399.1
39399.1
39399.1
39399.2
39399.2
39399.3
39399.3
39399.3
39399.4
39399.4
39399.4
39399.5
39399.5
39399.5
39399.6
39399.6
39399.6
39399.6
39399.7
39399.7
39399.7
39399.7
39399.8
39399.8
39399.8
39399.8
39399.9
39399.9
39399.9
39399.9
39399.9
39400
39400
39400
39400
39400
39400
39400
39400.1
39400.1
39400.1
39400.1
39400.1
39400.1
39400.1
39400.1
39400.2
39400.2
39400.2
39400.2
39400.2
39400.2
39400.2
39400.2
39400.2
39400.2
39400.2
39400.2
39400.2
39400.2
39400.2
39400.2
39400.2
39400.2
39400.3
39400.3
39400.3
39400.3
39400.3
39887.8
39887.6
39887.1
39886.4
39885.4
39884.3
39882.9
39881.2
39879.4
39877.3
39875
39872.5
39869.8
39866.9
39863.8
39860.6
39857.1
39853.5
39849.7
39845.7
39841.6
39837.3
39832.9
39828.4
39823.8
39819
39814.2
39809.2
39804.2
39799
39793.8
39788.5
39783.2
39777.8
39772.4
39766.9
39761.4
39755.9
39750.4
39744.8
39739.3
39733.7
39728.2
39722.6
39717.1
39711.6
39706.1
39700.7
39695.3
39689.9
39684.6
39679.3
39674
39668.8
39663.7
39658.6
39653.6
39648.6
39643.7
39638.9
39634.1
39629.4
39624.7
39620.1
39615.6
39611.2
39606.8
39602.5
39598.3
39594.2
39590.1
39586.1
39582.1
39578.3
39574.5
39570.7
39567.1
39563.5
39560
39556.5
39553.1
39549.8
39546.6
39543.4
39540.3
39537.2
39534.2
39531.3
39528.4
39525.6
39522.9
39520.2
39517.6
39515
39512.5
39510
39507.6
39505.2
39502.9
39500.6
39498.4
39496.2
39494.1
39492
39489.9
39487.9
39486
39484.1
39482.2
39480.3
39478.5
39476.7
39475
39473.3
39471.6
39469.9
39468.3
39466.7
39465.1
39463.6
39462.1
39460.6
39459.1
39457.7
39456.3
39454.9
39453.5
39452.1
39450.8
39449.4
39448.1
39446.8
39445.6
39444.3
39443.1
39441.8
39440.6
39439.4
39438.2
39437
39435.9
39434.7
39433.6
39432.4
39431.3
39430.2
39429.1
39428
39426.9
39425.9
39424.8
39423.7
39422.7
39421.7
39420.6
39419.6
39418.6
39417.6
39416.6
39415.7
39414.7
39413.7
39412.8
39411.8
39410.9
39410
39409.1
39408.2
39407.3
39406.4
39405.5
39404.7
39403.8
39403
39402.2
39401.4
39400.6
39399.8
39399
39398.2
39397.5
39396.8
39396
39395.3
39394.6
39394
39393.3
39392.6
39392
39391.4
39390.8
39390.2
39389.6
39389
39388.5
39387.9
39387.4
39386.9
39386.4
39385.9
39385.4
39385
39384.6
39384.1
39383.7
39383.3
39382.9
39382.6
39382.2
39381.9
39381.5
39381.2
39380.9
39380.6
39380.3
39380
39379.7
39379.5
39379.2
39379
39378.7
39378.5
39378.3
39378.1
39377.9
39377.7
39377.5
39377.3
39377.1
39376.9
39376.8
39376.6
39376.4
39376.3
39376.1
39375.9
39375.8
39375.6
39375.5
39375.3
39375.2
39375
39374.9
39374.7
39374.6
39374.4
39374.3
39374.1
39374
39373.8
39373.7
39373.5
39373.4
39373.2
39373.1
39372.9
39372.8
39372.6
39372.5
39372.3
39372.1
39372
39371.8
39371.7
39371.5
39371.4
39371.3
39371.1
39371
39370.8
39370.7
39370.5
39370.4
39370.3
39370.2
39370
39369.9
39369.8
39369.7
39369.6
39369.5
39369.4
39369.3
39369.2
39369.1
39369
39368.9
39368.9
39368.8
39368.8
39368.7
39368.7
39368.6
39368.6
39368.6
39368.5
39368.5
39368.5
39368.5
39368.5
39368.5
39368.6
39368.6
39368.6
39368.7
39368.7
39368.8
39368.8
39368.9
39369
39369
39369.1
39369.2
39369.3
39369.4
39369.5
39369.6
39369.8
39369.9
39370
39370.2
39370.3
39370.5
39370.6
39370.8
39371
39371.1
39371.3
39371.5
39371.7
39371.8
39372
39372.2
39372.4
39372.6
39372.8
39373.1
39373.3
39373.5
39373.7
39373.9
39374.1
39374.4
39374.6
39374.8
39375.1
39375.3
39375.5
39375.8
39376
39376.2
39376.5
39376.7
39376.9
39377.2
39377.4
39377.7
39377.9
39378.1
39378.4
39378.6
39378.8
39379.1
39379.3
39379.5
39379.8
39380
39380.2
39380.4
39380.7
39380.9
39381.1
39381.3
39381.5
39381.7
39382
39382.2
39382.4
39382.6
39382.8
39382.9
39383.1
39383.3
39383.5
39383.7
39383.9
39384
39384.2
39384.4
39384.5
39384.7
39384.9
39385
39385.2
39385.3
39385.5
39385.6
39385.7
39385.9
39386
39386.1
39386.3
39386.4
39386.5
39386.6
39386.7
39386.8
39387
39387.1
39387.2
39387.3
39387.4
39387.5
39387.6
39387.6
39387.7
39387.8
39387.9
39388
39388.1
39388.2
39388.2
39388.3
39388.4
39388.5
39388.5
39388.6
39388.7
39388.7
39388.8
39388.8
39388.9
39389
39389
39389.1
39389.1
39389.2
39389.2
39389.3
39389.3
39389.4
39389.4
39389.5
39389.5
39389.6
39389.6
39389.6
39389.7
39389.7
39389.8
39389.8
39389.8
39389.9
39389.9
39389.9
39390
39390
39390
39390
39390.1
39390.1
39390.1
39390.2
39390.2
39390.2
39390.2
39390.2
39390.3
39390.3
39390.3
39390.3
39390.4
39390.4
39390.4
39390.4
39390.4
39390.4
39390.5
39390.5
39390.5
39390.5
39390.5
39390.5
39390.5
39390.6
39390.6
39390.6
39390.6
39390.6
39390.6
39390.6
39390.6
39390.6
39390.6
39390.6
39390.7
39390.7
39390.7
39390.7
39390.7
39390.7
39390.7
39390.7
39390.7
39390.7
39390.7
39390.7
39390.7
39390.7
39390.7
39390.7
39390.7
39875.8
39875.6
39875.1
39874.4
39873.5
39872.3
39870.9
39869.2
39867.4
39865.3
39863
39860.5
39857.8
39854.8
39851.7
39848.4
39845
39841.3
39837.5
39833.5
39829.4
39825.1
39820.7
39816.1
39811.4
39806.7
39801.8
39796.8
39791.7
39786.6
39781.3
39776
39770.7
39765.3
39759.8
39754.3
39748.8
39743.3
39737.7
39732.1
39726.6
39721
39715.4
39709.9
39704.3
39698.8
39693.3
39687.8
39682.4
39677
39671.7
39666.4
39661.1
39655.9
39650.7
39645.7
39640.6
39635.6
39630.7
39625.9
39621.1
39616.4
39611.7
39607.1
39602.6
39598.2
39593.8
39589.5
39585.3
39581.1
39577.1
39573
39569.1
39565.2
39561.4
39557.7
39554.1
39550.5
39547
39543.5
39540.1
39536.8
39533.6
39530.4
39527.3
39524.2
39521.2
39518.3
39515.5
39512.7
39509.9
39507.2
39504.6
39502
39499.5
39497
39494.6
39492.3
39489.9
39487.7
39485.4
39483.3
39481.1
39479.1
39477
39475
39473.1
39471.1
39469.3
39467.4
39465.6
39463.8
39462.1
39460.4
39458.7
39457
39455.4
39453.8
39452.3
39450.7
39449.2
39447.7
39446.3
39444.8
39443.4
39442
39440.6
39439.3
39437.9
39436.6
39435.3
39434
39432.7
39431.5
39430.2
39429
39427.8
39426.6
39425.4
39424.2
39423.1
39421.9
39420.8
39419.6
39418.5
39417.4
39416.3
39415.2
39414.1
39413.1
39412
39411
39409.9
39408.9
39407.9
39406.8
39405.8
39404.8
39403.9
39402.9
39401.9
39401
39400
39399.1
39398.1
39397.2
39396.3
39395.4
39394.5
39393.7
39392.8
39391.9
39391.1
39390.3
39389.4
39388.6
39387.8
39387
39386.3
39385.5
39384.8
39384
39383.3
39382.6
39381.9
39381.2
39380.6
39379.9
39379.3
39378.6
39378
39377.4
39376.9
39376.3
39375.7
39375.2
39374.7
39374.2
39373.7
39373.2
39372.7
39372.3
39371.8
39371.4
39371
39370.6
39370.2
39369.8
39369.5
39369.1
39368.8
39368.5
39368.2
39367.9
39367.6
39367.3
39367
39366.8
39366.5
39366.3
39366
39365.8
39365.6
39365.4
39365.2
39365
39364.8
39364.6
39364.4
39364.2
39364
39363.9
39363.7
39363.5
39363.4
39363.2
39363.1
39362.9
39362.7
39362.6
39362.4
39362.3
39362.1
39362
39361.8
39361.7
39361.5
39361.4
39361.2
39361.1
39360.9
39360.8
39360.6
39360.5
39360.3
39360.2
39360
39359.9
39359.7
39359.6
39359.4
39359.3
39359.1
39359
39358.8
39358.7
39358.5
39358.4
39358.2
39358.1
39358
39357.8
39357.7
39357.6
39357.4
39357.3
39357.2
39357.1
39357
39356.8
39356.7
39356.6
39356.5
39356.5
39356.4
39356.3
39356.2
39356.1
39356.1
39356
39356
39355.9
39355.9
39355.9
39355.8
39355.8
39355.8
39355.8
39355.8
39355.8
39355.8
39355.8
39355.9
39355.9
39355.9
39356
39356
39356.1
39356.2
39356.2
39356.3
39356.4
39356.5
39356.6
39356.7
39356.8
39356.9
39357.1
39357.2
39357.3
39357.5
39357.6
39357.8
39357.9
39358.1
39358.2
39358.4
39358.6
39358.8
39358.9
39359.1
39359.3
39359.5
39359.7
39359.9
39360.1
39360.3
39360.6
39360.8
39361
39361.2
39361.4
39361.7
39361.9
39362.1
39362.3
39362.6
39362.8
39363
39363.3
39363.5
39363.8
39364
39364.2
39364.5
39364.7
39365
39365.2
39365.4
39365.7
39365.9
39366.1
39366.4
39366.6
39366.8
39367.1
39367.3
39367.5
39367.7
39368
39368.2
39368.4
39368.6
39368.8
39369
39369.2
39369.5
39369.7
39369.9
39370
39370.2
39370.4
39370.6
39370.8
39371
39371.2
39371.3
39371.5
39371.7
39371.8
39372
39372.1
39372.3
39372.5
39372.6
39372.7
39372.9
39373
39373.2
39373.3
39373.4
39373.5
39373.7
39373.8
39373.9
39374
39374.1
39374.2
39374.4
39374.5
39374.6
39374.7
39374.8
39374.8
39374.9
39375
39375.1
39375.2
39375.3
39375.4
39375.4
39375.5
39375.6
39375.7
39375.7
39375.8
39375.9
39376
39376
39376.1
39376.1
39376.2
39376.3
39376.3
39376.4
39376.4
39376.5
39376.5
39376.6
39376.6
39376.7
39376.7
39376.8
39376.8
39376.9
39376.9
39376.9
39377
39377
39377
39377.1
39377.1
39377.2
39377.2
39377.2
39377.2
39377.3
39377.3
39377.3
39377.4
39377.4
39377.4
39377.4
39377.5
39377.5
39377.5
39377.5
39377.6
39377.6
39377.6
39377.6
39377.6
39377.7
39377.7
39377.7
39377.7
39377.7
39377.7
39377.8
39377.8
39377.8
39377.8
39377.8
39377.8
39377.8
39377.9
39377.9
39377.9
39377.9
39377.9
39377.9
39377.9
39377.9
39377.9
39377.9
39377.9
39377.9
39378
39378
39378
39378
39378
39378
39378
39378
39378
39378
39378
39378
39378
39378
39378
39860.9
39860.7
39860.2
39859.5
39858.6
39857.4
39855.9
39854.3
39852.4
39850.3
39848
39845.5
39842.7
39839.8
39836.7
39833.3
39829.8
39826.1
39822.3
39818.3
39814.1
39809.8
39805.4
39800.8
39796.1
39791.3
39786.3
39781.3
39776.2
39771
39765.8
39760.4
39755.1
39749.6
39744.1
39738.6
39733.1
39727.5
39721.9
39716.3
39710.7
39705.1
39699.5
39693.9
39688.4
39682.8
39677.3
39671.8
39666.4
39661
39655.6
39650.3
39645
39639.8
39634.6
39629.5
39624.5
39619.5
39614.6
39609.7
39604.9
39600.2
39595.5
39590.9
39586.4
39582
39577.6
39573.3
39569.1
39564.9
39560.8
39556.8
39552.9
39549
39545.2
39541.5
39537.8
39534.2
39530.7
39527.3
39523.9
39520.6
39517.4
39514.2
39511.1
39508
39505.1
39502.1
39499.3
39496.5
39493.7
39491.1
39488.4
39485.9
39483.3
39480.9
39478.5
39476.1
39473.8
39471.5
39469.3
39467.2
39465
39462.9
39460.9
39458.9
39457
39455
39453.2
39451.3
39449.5
39447.7
39446
39444.3
39442.6
39441
39439.4
39437.8
39436.2
39434.7
39433.2
39431.7
39430.2
39428.8
39427.4
39426
39424.6
39423.2
39421.9
39420.6
39419.3
39418
39416.7
39415.5
39414.2
39413
39411.8
39410.6
39409.4
39408.2
39407.1
39405.9
39404.8
39403.7
39402.6
39401.4
39400.3
39399.3
39398.2
39397.1
39396.1
39395
39394
39393
39391.9
39390.9
39389.9
39388.9
39387.9
39387
39386
39385.1
39384.1
39383.2
39382.2
39381.3
39380.4
39379.5
39378.6
39377.8
39376.9
39376
39375.2
39374.4
39373.6
39372.7
39372
39371.2
39370.4
39369.6
39368.9
39368.2
39367.4
39366.7
39366
39365.4
39364.7
39364.1
39363.4
39362.8
39362.2
39361.6
39361
39360.4
39359.9
39359.4
39358.8
39358.3
39357.8
39357.3
39356.9
39356.4
39356
39355.6
39355.2
39354.8
39354.4
39354
39353.6
39353.3
39353
39352.6
39352.3
39352
39351.7
39351.5
39351.2
39350.9
39350.7
39350.4
39350.2
39350
39349.7
39349.5
39349.3
39349.1
39348.9
39348.7
39348.6
39348.4
39348.2
39348
39347.9
39347.7
39347.5
39347.4
39347.2
39347.1
39346.9
39346.7
39346.6
39346.4
39346.3
39346.1
39346
39345.8
39345.7
39345.5
39345.4
39345.2
39345.1
39344.9
39344.8
39344.6
39344.5
39344.3
39344.2
39344
39343.9
39343.7
39343.6
39343.4
39343.3
39343.1
39343
39342.8
39342.7
39342.5
39342.4
39342.2
39342.1
39342
39341.8
39341.7
39341.6
39341.5
39341.3
39341.2
39341.1
39341
39340.9
39340.8
39340.7
39340.6
39340.5
39340.4
39340.4
39340.3
39340.2
39340.2
39340.1
39340.1
39340
39340
39340
39340
39340
39339.9
39339.9
39340
39340
39340
39340
39340.1
39340.1
39340.1
39340.2
39340.3
39340.3
39340.4
39340.5
39340.6
39340.7
39340.8
39340.9
39341
39341.1
39341.2
39341.3
39341.5
39341.6
39341.8
39341.9
39342.1
39342.2
39342.4
39342.6
39342.7
39342.9
39343.1
39343.3
39343.5
39343.7
39343.9
39344.1
39344.3
39344.5
39344.7
39344.9
39345.2
39345.4
39345.6
39345.8
39346.1
39346.3
39346.5
39346.7
39347
39347.2
39347.5
39347.7
39347.9
39348.2
39348.4
39348.6
39348.9
39349.1
39349.4
39349.6
39349.8
39350.1
39350.3
39350.5
39350.8
39351
39351.2
39351.5
39351.7
39351.9
39352.1
39352.4
39352.6
39352.8
39353
39353.2
39353.4
39353.6
39353.8
39354
39354.2
39354.4
39354.6
39354.8
39355
39355.2
39355.3
39355.5
39355.7
39355.8
39356
39356.2
39356.3
39356.5
39356.6
39356.8
39356.9
39357.1
39357.2
39357.3
39357.5
39357.6
39357.7
39357.8
39358
39358.1
39358.2
39358.3
39358.4
39358.5
39358.6
39358.7
39358.8
39358.9
39359
39359.1
39359.2
39359.3
39359.4
39359.5
39359.5
39359.6
39359.7
39359.8
39359.8
39359.9
39360
39360.1
39360.1
39360.2
39360.2
39360.3
39360.4
39360.4
39360.5
39360.5
39360.6
39360.6
39360.7
39360.7
39360.8
39360.8
39360.9
39360.9
39361
39361
39361.1
39361.1
39361.1
39361.2
39361.2
39361.2
39361.3
39361.3
39361.3
39361.4
39361.4
39361.4
39361.5
39361.5
39361.5
39361.6
39361.6
39361.6
39361.6
39361.7
39361.7
39361.7
39361.7
39361.7
39361.8
39361.8
39361.8
39361.8
39361.8
39361.9
39361.9
39361.9
39361.9
39361.9
39361.9
39362
39362
39362
39362
39362
39362
39362
39362
39362
39362.1
39362.1
39362.1
39362.1
39362.1
39362.1
39362.1
39362.1
39362.1
39362.1
39362.1
39362.1
39362.1
39362.1
39362.1
39362.2
39362.2
39362.2
39362.2
39362.2
39362.2
39362.2
39362.2
39843.1
39842.9
39842.4
39841.7
39840.7
39839.5
39838.1
39836.4
39834.5
39832.4
39830
39827.5
39824.7
39821.8
39818.6
39815.2
39811.7
39808
39804.1
39800.1
39795.9
39791.5
39787
39782.4
39777.7
39772.8
39767.9
39762.8
39757.7
39752.4
39747.1
39741.8
39736.3
39730.9
39725.3
39719.8
39714.2
39708.6
39703
39697.3
39691.7
39686.1
39680.5
39674.8
39669.3
39663.7
39658.1
39652.6
39647.2
39641.7
39636.3
39631
39625.7
39620.5
39615.3
39610.2
39605.1
39600.1
39595.2
39590.3
39585.5
39580.8
39576.1
39571.5
39567
39562.5
39558.2
39553.9
39549.6
39545.5
39541.4
39537.4
39533.4
39529.6
39525.8
39522
39518.4
39514.8
39511.3
39507.9
39504.5
39501.2
39497.9
39494.8
39491.7
39488.6
39485.7
39482.7
39479.9
39477.1
39474.4
39471.7
39469.1
39466.5
39464
39461.5
39459.1
39456.8
39454.5
39452.2
39450
39447.8
39445.7
39443.6
39441.6
39439.6
39437.7
39435.8
39433.9
39432
39430.2
39428.5
39426.7
39425
39423.4
39421.7
39420.1
39418.5
39417
39415.5
39413.9
39412.5
39411
39409.6
39408.2
39406.8
39405.4
39404.1
39402.7
39401.4
39400.1
39398.8
39397.6
39396.3
39395.1
39393.9
39392.6
39391.5
39390.3
39389.1
39387.9
39386.8
39385.7
39384.5
39383.4
39382.3
39381.2
39380.2
39379.1
39378
39377
39375.9
39374.9
39373.9
39372.8
39371.8
39370.8
39369.9
39368.9
39367.9
39366.9
39366
39365
39364.1
39363.2
39362.3
39361.4
39360.5
39359.6
39358.7
39357.9
39357
39356.2
39355.3
39354.5
39353.7
39352.9
39352.2
39351.4
39350.6
39349.9
39349.2
39348.4
39347.7
39347
39346.4
39345.7
39345.1
39344.4
39343.8
39343.2
39342.6
39342
39341.5
39340.9
39340.4
39339.8
39339.3
39338.8
39338.4
39337.9
39337.4
39337
39336.6
39336.2
39335.8
39335.4
39335
39334.7
39334.3
39334
39333.7
39333.3
39333
39332.8
39332.5
39332.2
39331.9
39331.7
39331.4
39331.2
39331
39330.8
39330.5
39330.3
39330.1
39329.9
39329.8
39329.6
39329.4
39329.2
39329
39328.9
39328.7
39328.5
39328.4
39328.2
39328.1
39327.9
39327.8
39327.6
39327.5
39327.3
39327.1
39327
39326.8
39326.7
39326.5
39326.4
39326.2
39326.1
39325.9
39325.8
39325.6
39325.5
39325.3
39325.2
39325
39324.9
39324.7
39324.6
39324.4
39324.3
39324.1
39324
39323.8
39323.7
39323.5
39323.4
39323.2
39323.1
39323
39322.8
39322.7
39322.6
39322.5
39322.3
39322.2
39322.1
39322
39321.9
39321.8
39321.7
39321.6
39321.5
39321.4
39321.4
39321.3
39321.2
39321.2
39321.1
39321.1
39321.1
39321
39321
39321
39321
39321
39321
39321
39321
39321
39321
39321.1
39321.1
39321.2
39321.2
39321.3
39321.3
39321.4
39321.5
39321.6
39321.7
39321.8
39321.9
39322
39322.1
39322.2
39322.4
39322.5
39322.6
39322.8
39322.9
39323.1
39323.3
39323.4
39323.6
39323.8
39323.9
39324.1
39324.3
39324.5
39324.7
39324.9
39325.1
39325.3
39325.5
39325.7
39326
39326.2
39326.4
39326.6
39326.9
39327.1
39327.3
39327.5
39327.8
39328
39328.2
39328.5
39328.7
39329
39329.2
39329.4
39329.7
39329.9
39330.2
39330.4
39330.6
39330.9
39331.1
39331.3
39331.6
39331.8
39332
39332.3
39332.5
39332.7
39333
39333.2
39333.4
39333.6
39333.8
39334
39334.2
39334.5
39334.7
39334.9
39335.1
39335.3
39335.4
39335.6
39335.8
39336
39336.2
39336.4
39336.5
39336.7
39336.9
39337
39337.2
39337.4
39337.5
39337.7
39337.8
39337.9
39338.1
39338.2
39338.4
39338.5
39338.6
39338.7
39338.9
39339
39339.1
39339.2
39339.3
39339.4
39339.6
39339.7
39339.8
39339.9
39340
39340
39340.1
39340.2
39340.3
39340.4
39340.5
39340.6
39340.6
39340.7
39340.8
39340.9
39340.9
39341
39341.1
39341.1
39341.2
39341.3
39341.3
39341.4
39341.5
39341.5
39341.6
39341.6
39341.7
39341.7
39341.8
39341.8
39341.9
39341.9
39342
39342
39342
39342.1
39342.1
39342.2
39342.2
39342.2
39342.3
39342.3
39342.3
39342.4
39342.4
39342.4
39342.5
39342.5
39342.5
39342.6
39342.6
39342.6
39342.6
39342.7
39342.7
39342.7
39342.7
39342.8
39342.8
39342.8
39342.8
39342.8
39342.9
39342.9
39342.9
39342.9
39342.9
39342.9
39343
39343
39343
39343
39343
39343
39343
39343
39343.1
39343.1
39343.1
39343.1
39343.1
39343.1
39343.1
39343.1
39343.1
39343.1
39343.1
39343.1
39343.2
39343.2
39343.2
39343.2
39343.2
39343.2
39343.2
39343.2
39343.2
39343.2
39343.2
39343.2
39343.2
39343.2
39822.4
39822.1
39821.6
39820.9
39819.9
39818.7
39817.3
39815.6
39813.7
39811.5
39809.2
39806.6
39803.8
39800.8
39797.6
39794.2
39790.6
39786.9
39783
39778.9
39774.6
39770.2
39765.7
39761.1
39756.3
39751.4
39746.4
39741.3
39736.1
39730.8
39725.5
39720.1
39714.6
39709.1
39703.5
39697.9
39692.3
39686.6
39681
39675.3
39669.6
39664
39658.3
39652.6
39647
39641.4
39635.9
39630.3
39624.8
39619.4
39613.9
39608.6
39603.3
39598
39592.8
39587.7
39582.6
39577.6
39572.6
39567.7
39562.9
39558.2
39553.5
39548.9
39544.4
39539.9
39535.5
39531.2
39527
39522.8
39518.8
39514.7
39510.8
39506.9
39503.1
39499.4
39495.8
39492.2
39488.7
39485.3
39481.9
39478.6
39475.4
39472.2
39469.1
39466.1
39463.1
39460.2
39457.3
39454.5
39451.8
39449.1
39446.5
39444
39441.5
39439
39436.6
39434.3
39432
39429.7
39427.5
39425.4
39423.3
39421.2
39419.2
39417.2
39415.2
39413.3
39411.5
39409.6
39407.8
39406.1
39404.3
39402.6
39401
39399.4
39397.7
39396.2
39394.6
39393.1
39391.6
39390.1
39388.7
39387.2
39385.8
39384.4
39383.1
39381.7
39380.4
39379.1
39377.8
39376.5
39375.3
39374
39372.8
39371.6
39370.4
39369.2
39368
39366.8
39365.7
39364.6
39363.4
39362.3
39361.2
39360.1
39359
39357.9
39356.9
39355.8
39354.8
39353.7
39352.7
39351.7
39350.7
39349.7