/*--------------------------------*- C++ -*----------------------------------*\
| =========                 |                                                 |
| \\      /  F ield         | OpenFOAM: The Open Source CFD Toolbox           |
|  \\    /   O peration     | Version:  v2012                                 |
|   \\  /    A nd           | Website:  www.openfoam.com                      |
|    \\/     M anipulation  |                                                 |
\*---------------------------------------------------------------------------*/
FoamFile
{
    version     2.0;
    format      ascii;
    class       surfaceScalarField;
    location    "50";
    object      phi;
}
// * * * * * * * * * * * * * * * * * * * * * * * * * * * * * * * * * * * * * //

dimensions      [1 0 -1 0 0 0 0];
oriented        oriented;


internalField   nonuniform List<scalar> 
130432
(
9.4533
-9.52361
18.9242
-9.49163
28.3655
-9.46195
37.7589
-9.41378
47.0934
-9.35471
56.3541
-9.28058
65.5278
-9.19325
74.6004
-9.09174
83.5588
-8.97707
92.3895
-8.84886
101.08
-8.70809
109.617
-8.55454
117.99
-8.3892
126.186
-8.212
134.195
-8.02392
142.006
-7.82504
149.609
-7.61628
156.994
-7.3979
164.153
-7.17074
171.077
-6.93522
177.759
-6.69211
184.191
-6.44194
190.368
-6.18545
196.284
-5.92324
201.933
-5.65602
207.312
-5.38443
212.416
-5.10918
217.243
-4.8309
221.791
-4.55031
226.057
-4.26803
230.04
-3.98475
233.741
-3.70109
237.159
-3.41772
240.296
-3.13522
243.152
-2.85423
245.731
-2.5753
248.033
-2.29904
250.064
-2.02596
251.826
-1.75661
253.324
-1.49146
254.562
-1.23101
255.545
-0.975688
256.279
-0.725935
256.77
-0.482113
257.024
-0.244616
257.048
-0.0137456
256.849
0.210166
256.433
0.426874
255.809
0.63611
254.984
0.837686
253.966
1.0314
252.762
1.21712
251.381
1.3947
249.831
1.56406
248.121
1.72514
246.258
1.87789
244.251
2.02231
242.109
2.15841
239.839
2.28622
237.45
2.40582
234.949
2.51728
232.346
2.62072
229.647
2.71625
226.861
2.80403
223.995
2.8842
221.056
2.95697
218.052
3.0225
214.989
3.081
211.875
3.1327
208.716
3.1778
205.519
3.21656
202.289
3.24919
199.032
3.27596
195.754
3.29711
192.461
3.31288
189.156
3.32354
185.846
3.32934
182.535
3.33052
179.227
3.32736
175.926
3.32008
172.637
3.30895
169.362
3.2942
166.104
3.27606
162.868
3.25478
159.656
3.23057
156.471
3.20367
153.315
3.17427
150.19
3.14258
147.099
3.10881
144.043
3.07314
141.024
3.03575
138.043
2.99682
135.102
2.95652
132.203
2.915
129.345
2.87241
126.53
2.82889
123.759
2.78458
121.033
2.73961
118.351
2.69408
115.714
2.64813
113.123
2.60184
110.577
2.55532
108.078
2.50866
105.624
2.46193
103.216
2.41523
100.854
2.36862
98.5365
2.32217
96.2647
2.27593
94.0377
2.22998
91.8551
2.18435
89.7167
2.13909
87.6219
2.09425
85.5702
2.04987
83.561
2.00597
81.594
1.9626
79.6684
1.91977
77.7837
1.87751
75.9392
1.83585
74.1343
1.79479
72.3683
1.75437
70.6406
1.71458
68.9505
1.67545
67.2974
1.63697
65.6805
1.59917
64.0991
1.56204
62.5525
1.52559
61.0401
1.48982
59.5612
1.45473
58.1151
1.42032
56.701
1.38659
55.3183
1.35355
53.9664
1.32117
52.6445
1.28947
51.352
1.25844
50.0883
1.22806
48.8527
1.19834
47.6445
1.16927
46.4632
1.14084
45.3081
1.11304
44.1786
1.08587
43.0742
1.05932
41.9942
1.03337
40.9381
1.00803
39.9054
0.983273
38.8954
0.9591
37.9076
0.935498
36.9416
0.912459
35.9968
0.889973
35.0728
0.868029
34.1689
0.846619
33.2849
0.825732
32.4201
0.805359
31.5742
0.78549
30.7468
0.766114
29.9373
0.747223
29.1454
0.728806
28.3707
0.710854
27.6128
0.693357
26.8713
0.676305
26.1459
0.65969
25.4361
0.6435
24.7417
0.627728
24.0624
0.612364
23.3977
0.597399
22.7474
0.582823
22.1111
0.568627
21.4886
0.554804
20.8796
0.541344
20.2838
0.528238
19.7009
0.515477
19.1307
0.503055
18.5729
0.490961
18.0272
0.479189
17.4935
0.467729
16.9714
0.456575
16.4608
0.445718
15.9615
0.43515
15.4731
0.424864
14.9956
0.414852
14.5287
0.405108
14.0722
0.395624
13.6259
0.386393
13.1896
0.377407
12.7632
0.368661
12.3465
0.360148
11.9392
0.35186
11.5413
0.343792
11.1525
0.335937
10.7727
0.328289
10.4017
0.320842
10.0394
0.31359
9.68558
0.306527
9.3401
0.299649
9.00281
0.292948
8.67356
0.28642
8.3522
0.280059
8.03857
0.273861
7.73254
0.267819
7.43394
0.261931
7.14265
0.256189
6.85851
0.250591
6.58137
0.245131
6.3111
0.239804
6.04755
0.234608
5.79058
0.229536
5.54005
0.224586
5.29581
0.219754
5.05772
0.215035
4.82565
0.210425
4.59945
0.205922
4.37898
0.201521
4.1641
0.19722
3.95468
0.193014
3.75057
0.188901
3.55163
0.184878
3.35774
0.180941
3.16876
0.177088
2.98454
0.173315
2.80496
0.169621
2.62989
0.166002
2.45919
0.162456
2.29273
0.158981
2.13039
0.155573
1.97203
0.152232
1.81755
0.148954
1.6668
0.145737
1.51968
0.14258
1.37607
0.139481
1.23585
0.136437
1.09892
0.133447
0.965151
0.130509
0.834451
0.127621
0.706714
0.124783
0.581839
0.121991
0.459731
0.119246
0.340297
0.116544
0.223448
0.113886
0.109096
0.11127
-0.00283865
0.108695
-0.112436
0.106159
-0.21977
0.103661
-0.324912
0.101201
-0.427928
0.0987773
-0.528882
0.0963891
-0.627833
0.0940354
-0.724837
0.0917156
-0.819944
0.0894288
-0.913204
0.0871743
-1.00466
0.0849515
-1.09435
0.0827597
-1.18232
0.0805984
-1.26859
0.078467
-1.3532
0.076365
-1.43617
0.0742919
-1.51753
0.0722474
-1.5973
0.070231
-1.67549
0.0682424
-1.75211
0.0662813
-1.82719
0.0643474
-1.90073
0.0624405
-1.97274
0.0605602
-2.04321
0.0587064
-2.11216
0.056879
-2.17958
0.0550776
-2.24548
0.0533024
-2.30985
0.051553
-2.37268
0.0498294
-2.43397
0.0481315
-2.49372
0.0464593
-2.55192
0.0448126
-2.60855
0.0431915
-2.66361
0.0415959
-2.71709
0.0400258
-2.76899
0.0384811
-2.81928
0.0369618
-2.86797
0.0354679
-2.91504
0.0339995
-2.96048
0.0325564
-3.00429
0.0311388
-3.04645
0.0297465
-3.08696
0.0283796
-3.1258
0.027038
-3.16299
0.0257219
-3.1985
0.024431
-3.23233
0.0231655
-3.26449
0.0219252
-3.29496
0.0207102
-3.32375
0.0195204
-3.35085
0.0183557
-3.37627
0.0172162
-3.40001
0.0161017
-3.42207
0.0150122
-3.44246
0.0139477
-3.46118
0.0129079
-3.47824
0.0118928
-3.49365
0.0109024
-3.50741
0.00993651
-3.51954
0.00899499
-3.53005
0.00807773
-3.53896
0.00718461
-3.54627
0.00631546
-3.552
0.00547014
-3.55618
0.00464849
-3.55881
0.00385034
-3.55992
0.0030755
-3.55952
0.0023238
-3.55764
0.00159504
-3.5543
0.00088901
-3.54952
0.000205517
-3.54332
-0.000455657
-3.53574
-0.00109473
-3.52678
-0.00171194
-3.51649
-0.0023075
-3.50488
-0.00288167
-3.49198
-0.00343467
-3.47782
-0.00396676
-3.46243
-0.00447819
-3.44584
-0.00496922
-3.42807
-0.0054401
-3.40916
-0.00589111
-3.38914
-0.00632251
-3.36803
-0.00673457
-3.34586
-0.00712757
-3.32268
-0.00750178
-3.2985
-0.0078575
-3.27336
-0.00819499
-3.24729
-0.00851455
-3.22033
-0.00881646
-3.1925
-0.00910102
-3.16384
-0.00936852
-3.13439
-0.00961926
-3.10416
-0.00985353
-3.0732
-0.0100716
-3.04154
-0.0102739
-3.00921
-0.0104606
-2.97624
-0.010632
-2.94267
-0.0107885
-2.90853
-0.0109304
-2.87386
-0.011058
-2.83867
-0.0111715
-2.80302
-0.0112714
-2.76693
-0.011358
-2.73043
-0.0114315
-2.69355
-0.0114923
-2.65634
-0.0115408
-2.61882
-0.0115773
-2.58102
-0.0116021
-2.54297
-0.0116155
-2.50472
-0.011618
-2.46628
-0.0116098
-2.42769
-0.0115914
-2.38899
-0.011563
-2.3502
-0.0115251
-2.31136
-0.011478
-2.27249
-0.0114221
-2.23362
-0.0113577
-2.19479
-0.0112853
-2.15602
-0.0112051
-2.11734
-0.0111177
-2.07878
-0.0110233
-2.04037
-0.0109223
-2.00213
-0.0108151
-1.96408
-0.0107022
-1.92627
-0.0105838
-1.8887
-0.0104604
-1.8514
-0.0103322
-1.81439
-0.0101998
-1.7777
-0.0100634
-1.74135
-0.00992344
-1.70535
-0.00978022
-1.66973
-0.00963411
-1.63449
-0.00948544
-1.59967
-0.00933454
-1.56527
-0.00918173
-1.53131
-0.00902733
-1.4978
-0.00887163
-1.46476
-0.00871493
-1.43219
-0.00855751
-1.4001
-0.00839964
-1.36851
-0.00824156
-1.33742
-0.00808353
-1.30684
-0.00792578
-1.27678
-0.00776852
-1.24723
-0.00761197
-1.2182
-0.00745631
-1.1897
-0.00730173
-1.16173
-0.0071484
-1.13429
-0.00699646
-1.10737
-0.00684607
-1.08098
-0.00669735
-1.05511
-0.00655042
-1.02977
-0.00640539
-1.00495
-0.00626235
-0.980645
-0.00612139
-0.956853
-0.00598259
-0.933569
-0.00584599
-0.910787
-0.00571167
-0.888501
-0.00557966
-0.866707
-0.00545001
-0.845397
-0.00532274
-0.824564
-0.00519787
-0.804201
-0.00507541
-0.784301
-0.00495538
-0.764856
-0.00483778
-0.745859
-0.0047226
-0.727301
-0.00460984
-0.709175
-0.00449949
-0.691473
-0.00439152
-0.674185
-0.00428591
-0.657304
-0.00418265
-0.640823
-0.00408171
-0.624731
-0.00398306
-0.609022
-0.00388667
-0.593687
-0.00379251
-0.578718
-0.00370054
-0.564107
-0.00361073
-0.549846
-0.00352304
-0.535927
-0.00343744
-0.522342
-0.00335389
-0.509084
-0.00327235
-0.496144
-0.00319278
-0.483517
-0.00311515
-0.471193
-0.00303941
-0.459166
-0.00296553
-0.447428
-0.00289347
-0.435974
-0.0028232
-0.424795
-0.00275467
-0.413886
-0.00268785
-0.403239
-0.0026227
-0.392849
-0.00255919
-0.382708
-0.00249728
-0.372811
-0.00243694
-0.363151
-0.00237812
-0.353723
-0.0023208
-0.344521
-0.00226495
-0.335539
-0.00221053
-0.326771
-0.0021575
-0.318212
-0.00210584
-0.309857
-0.00205552
-0.3017
-0.00200651
-0.293737
-0.00195878
-0.285962
-0.00191229
-0.27837
-0.00186702
-0.270957
-0.00182294
-0.263718
-0.00178003
-0.256648
-0.00173826
-0.249743
-0.0016976
-0.242998
-0.00165803
-0.23641
-0.00161953
-0.229974
-0.00158206
-0.223686
-0.00154561
-0.217541
-0.00151015
-0.211537
-0.00147566
-0.205669
-0.00144213
-0.199933
-0.00140952
-0.194326
-0.00137782
-0.188844
-0.001347
-0.183483
-0.00131705
-0.178241
-0.00128796
-0.173114
-0.00125969
-0.168098
-0.00123224
-0.163191
-0.00120558
-0.158389
-0.0011797
-0.153689
-0.00115458
-0.149088
-0.0011302
-0.144583
-0.00110656
-0.140171
-0.00108363
-0.13585
-0.0010614
-0.131617
-0.00103985
-0.127468
-0.00101898
-0.123401
-0.000998763
-0.119414
-0.000979194
-0.115504
-0.000960257
-0.111669
-0.000941941
-0.107905
-0.000924233
-0.104212
-0.000907123
-0.100585
-0.000890598
-0.0970234
-0.000874649
-0.0935243
-0.000859266
-0.0900855
-0.000844437
-0.0867048
-0.000830154
-0.08338
-0.000816407
-0.0801091
-0.000803188
-0.0768898
-0.000790488
-0.0737201
-0.000778298
-0.070598
-0.000766611
-0.0675214
-0.000755419
-0.0644883
-0.000744716
-0.0614969
-0.000734492
-0.0585451
-0.000724744
-0.0556311
-0.000715462
-0.052753
-0.000706643
-0.0499089
-0.00069828
-0.047097
-0.000690368
-0.0443155
-0.0006829
-0.0415626
-0.000675874
-0.0388364
-0.000669282
-0.0361354
-0.000663124
-0.0334576
-0.000657389
-0.0308014
-0.000652084
-0.0281652
-0.000647187
-0.025547
-0.00064272
-0.0229454
-0.000638641
-0.0203586
-0.000635006
-0.017785
-0.000631712
-0.0152228
-0.000628912
-0.0126706
-0.000626328
-0.0101265
-0.000624423
-0.00758942
-0.000622313
-0.00505671
-0.000621644
-0.00252896
-0.000619305
-0.000622704
9.43463
-18.979
18.862
-18.9395
28.2601
-18.8806
37.6151
-18.7892
46.9119
-18.6715
56.1359
-18.5244
65.2733
-18.3501
74.3101
-18.1475
83.2329
-17.9185
92.0284
-17.6624
100.684
-17.3812
109.187
-17.0745
117.526
-16.7443
125.689
-16.3903
133.664
-16.0146
141.442
-15.6174
149.013
-15.2004
156.367
-14.7642
163.495
-14.3105
170.389
-13.8401
177.041
-13.3545
183.445
-12.8548
189.593
-12.3426
195.482
-11.8189
201.104
-11.2852
206.457
-10.7428
211.536
-10.1931
216.339
-9.6374
220.863
-9.07706
225.106
-8.51337
229.068
-7.94769
232.748
-7.38128
236.146
-6.81544
239.264
-6.25137
242.102
-5.69033
244.664
-5.13343
246.95
-4.58187
248.966
-4.03667
250.714
-3.49895
252.198
-2.96963
253.424
-2.44972
254.396
-1.94006
255.12
-1.44153
255.602
-0.954873
255.848
-0.480857
255.864
-0.0200912
255.659
0.426765
255.238
0.859221
254.609
1.27674
253.781
1.67896
252.76
2.06545
251.554
2.43597
250.173
2.79024
248.623
3.12809
246.914
3.44937
245.053
3.75404
243.049
4.04204
240.91
4.31344
238.644
4.56828
236.26
4.80672
233.765
5.02891
231.168
5.23508
228.476
5.42546
225.698
5.60035
222.84
5.76008
219.91
5.905
216.915
6.03549
213.863
6.15195
210.76
6.25482
207.612
6.34455
204.426
6.42159
201.208
6.48644
197.963
6.53957
194.698
6.58149
191.418
6.61269
188.127
6.63369
184.831
6.645
181.534
6.64711
178.24
6.64054
174.953
6.62578
171.678
6.60333
168.418
6.57367
165.175
6.53727
161.954
6.49459
158.757
6.4461
155.587
6.39222
152.446
6.33337
149.336
6.26998
146.26
6.20243
143.219
6.13111
140.215
6.05636
137.25
5.97856
134.324
5.89801
131.439
5.81505
128.597
5.72996
125.797
5.64303
123.04
5.55453
120.328
5.46471
117.66
5.37381
115.038
5.28205
112.461
5.18963
109.929
5.09675
107.443
5.0036
105.003
4.91033
102.608
4.81711
100.259
4.72408
97.955
4.63137
95.6959
4.5391
93.4815
4.44739
91.3113
4.35633
89.185
4.26603
87.1021
4.17656
85.0622
4.088
83.0646
4.00041
81.1089
3.91387
79.1944
3.82843
77.3206
3.74412
75.4868
3.661
73.6924
3.5791
71.9367
3.49846
70.2191
3.41909
68.539
3.34103
66.8955
3.26428
65.2881
3.18888
63.716
3.11481
62.1786
3.04211
60.6751
2.97076
59.2049
2.90077
57.7673
2.83214
56.3617
2.76488
54.9872
2.69896
53.6433
2.6344
52.3293
2.57117
51.0445
2.50927
49.7882
2.44869
48.56
2.38942
47.359
2.33145
46.1847
2.27475
45.0365
2.21931
43.9138
2.16513
42.8159
2.11217
41.7424
2.06043
40.6926
2.00988
39.666
1.96052
38.662
1.91231
37.6801
1.86524
36.7199
1.8193
35.7807
1.77446
34.8622
1.7307
33.9637
1.688
33.0849
1.64635
32.2253
1.60573
31.3844
1.56611
30.5619
1.52747
29.7572
1.4898
28.97
1.45307
28.1999
1.41728
27.4465
1.38239
26.7094
1.34839
25.9882
1.31525
25.2827
1.28297
24.5924
1.25152
23.917
1.22089
23.2563
1.19105
22.6098
1.16198
21.9773
1.13368
21.3584
1.10612
20.753
1.07928
20.1607
1.05315
19.5812
1.0277
19.0143
1.00294
18.4598
0.978823
17.9173
0.955351
17.3867
0.932503
16.8676
0.910264
16.36
0.888617
15.8636
0.867548
15.378
0.847041
14.9033
0.827081
14.4391
0.807654
13.9852
0.788746
13.5415
0.770342
13.1078
0.752429
12.6838
0.734993
12.2695
0.71802
11.8646
0.701499
11.4689
0.685414
11.0824
0.669756
10.7047
0.65451
10.3359
0.639665
9.97562
0.625209
9.62381
0.61113
9.2803
0.597418
8.94494
0.584061
8.61756
0.571048
8.29802
0.558369
7.98618
0.546014
7.68188
0.533972
7.38498
0.522234
7.09534
0.51079
6.81281
0.499631
6.53724
0.488748
6.2685
0.478131
6.00644
0.467773
5.75092
0.457665
5.5018
0.447799
5.25894
0.438166
5.02219
0.42876
4.79142
0.419573
4.56649
0.410597
4.34726
0.401825
4.13359
0.393252
3.92534
0.384869
3.72238
0.376671
3.52456
0.368651
3.33176
0.360804
3.14383
0.353123
2.96065
0.345604
2.78207
0.338239
2.60798
0.331026
2.43823
0.323957
2.2727
0.317029
2.11127
0.310236
1.9538
0.303575
1.80017
0.29704
1.65027
0.290627
1.50397
0.284333
1.36116
0.278154
1.22172
0.272085
1.08554
0.266124
0.952516
0.260266
0.82254
0.254508
0.69551
0.248848
0.571327
0.243282
0.449894
0.237807
0.331119
0.23242
0.214914
0.22712
0.101193
0.221902
-0.0101261
0.216766
-0.119121
0.211708
-0.225866
0.206727
-0.330431
0.20182
-0.432882
0.196986
-0.533284
0.192222
-0.631694
0.187527
-0.728169
0.1829
-0.822758
0.178338
-0.915509
0.173841
-1.00647
0.169407
-1.09567
0.165035
-1.18316
0.160723
-1.26897
0.156471
-1.35312
0.152278
-1.43564
0.148142
-1.51656
0.144063
-1.59589
0.14004
-1.67366
0.136073
-1.74987
0.13216
-1.82455
0.128302
-1.89769
0.124497
-1.9693
0.120746
-2.0394
0.117047
-2.10798
0.113401
-2.17504
0.109808
-2.24058
0.106266
-2.30459
0.102776
-2.36709
0.099337
-2.42805
0.0959497
-2.48747
0.0926136
-2.54535
0.0893286
-2.60167
0.0860945
-2.65643
0.0829114
-2.70962
0.0797792
-2.76123
0.0766977
-2.81125
0.0736671
-2.85967
0.0706872
-2.90647
0.0677581
-2.95166
0.0648797
-2.99522
0.0620521
-3.03714
0.0592751
-3.07742
0.0565488
-3.11605
0.0538733
-3.15302
0.0512483
-3.18832
0.0486739
-3.22196
0.0461502
-3.25392
0.0436769
-3.28421
0.041254
-3.31283
0.0388815
-3.33976
0.0365593
-3.36502
0.0342872
-3.38861
0.0320651
-3.41053
0.029893
-3.43078
0.0277705
-3.44937
0.0256977
-3.46631
0.0236742
-3.4816
0.0216998
-3.49526
0.0197745
-3.50729
0.0178978
-3.51771
0.0160695
-3.52653
0.0142894
-3.53377
0.0125572
-3.53943
0.0108726
-3.54355
0.00923518
-3.54612
0.00764467
-3.54718
0.0061007
-3.54675
0.0046029
-3.54483
0.00315088
-3.54146
0.00174423
-3.53666
0.000382543
-3.53045
-0.000934612
-3.52285
-0.00220768
-3.5139
-0.0034371
-3.50361
-0.00462336
-3.49201
-0.00576692
-3.47912
-0.00686827
-3.46499
-0.00792791
-3.44963
-0.00894634
-3.43307
-0.00992408
-3.41534
-0.0108616
-3.39647
-0.0117596
-3.37649
-0.0126184
-3.35544
-0.0134386
-3.33333
-0.0142209
-3.31021
-0.0149657
-3.2861
-0.0156735
-3.26103
-0.0163451
-3.23504
-0.0169809
-3.20816
-0.0175816
-3.18042
-0.0181476
-3.15185
-0.0186796
-3.12248
-0.0191782
-3.09235
-0.019644
-3.06149
-0.0200776
-3.02993
-0.0204796
-2.99771
-0.0208505
-2.96485
-0.0211911
-2.9314
-0.0215019
-2.89737
-0.0217836
-2.86281
-0.0220367
-2.82775
-0.022262
-2.79222
-0.02246
-2.75625
-0.0226314
-2.71988
-0.0227769
-2.68313
-0.0228971
-2.64605
-0.0229927
-2.60866
-0.0230644
-2.57099
-0.0231128
-2.53308
-0.0231387
-2.49496
-0.0231426
-2.45667
-0.0231254
-2.41822
-0.0230878
-2.37966
-0.0230304
-2.34101
-0.022954
-2.30231
-0.0228593
-2.26358
-0.022747
-2.22486
-0.022618
-2.18617
-0.0224728
-2.14754
-0.0223124
-2.10901
-0.0221374
-2.07059
-0.0219487
-2.03232
-0.0217468
-1.99422
-0.0215327
-1.95632
-0.0213071
-1.91865
-0.0210707
-1.88122
-0.0208242
-1.84406
-0.0205685
-1.80719
-0.0203042
-1.77064
-0.020032
-1.73443
-0.0197527
-1.69857
-0.0194671
-1.66308
-0.0191756
-1.62798
-0.0188791
-1.59329
-0.0185783
-1.55903
-0.0182736
-1.5252
-0.0179658
-1.49182
-0.0176555
-1.4589
-0.0173432
-1.42646
-0.0170295
-1.3945
-0.0167149
-1.36303
-0.0163999
-1.33207
-0.0160851
-1.3016
-0.0157708
-1.27166
-0.0154576
-1.24222
-0.0151457
-1.21331
-0.0148357
-1.18492
-0.0145279
-1.15706
-0.0142226
-1.12972
-0.01392
-1.10291
-0.0136206
-1.07663
-0.0133245
-1.05087
-0.013032
-1.02562
-0.0127433
-1.0009
-0.0124585
-0.976694
-0.0121779
-0.952996
-0.0119017
-0.929805
-0.0116298
-0.907114
-0.0113625
-0.884918
-0.0110997
-0.863211
-0.0108417
-0.841986
-0.0105884
-0.821236
-0.01034
-0.800955
-0.0100963
-0.781135
-0.00985745
-0.761768
-0.00962345
-0.742847
-0.00939428
-0.724364
-0.00916992
-0.706311
-0.00895036
-0.688679
-0.00873554
-0.671461
-0.00852544
-0.654649
-0.00832001
-0.638233
-0.00811919
-0.622207
-0.00792293
-0.606561
-0.00773117
-0.591288
-0.00754385
-0.576379
-0.00736089
-0.561827
-0.00718222
-0.547624
-0.00700778
-0.533761
-0.0068375
-0.520231
-0.00667129
-0.507026
-0.00650908
-0.494139
-0.0063508
-0.481562
-0.00619637
-0.469288
-0.00604572
-0.457309
-0.00589876
-0.445619
-0.00575542
-0.434211
-0.00561564
-0.423078
-0.00547932
-0.412212
-0.00534641
-0.401609
-0.00521682
-0.39126
-0.00509049
-0.38116
-0.00496734
-0.371303
-0.0048473
-0.361683
-0.00473031
-0.352293
-0.0046163
-0.343128
-0.0045052
-0.334182
-0.00439695
-0.325449
-0.00429148
-0.316925
-0.00418873
-0.308604
-0.00408864
-0.30048
-0.00399115
-0.292549
-0.0038962
-0.284805
-0.00380373
-0.277244
-0.00371369
-0.269861
-0.00362602
-0.262651
-0.00354067
-0.25561
-0.00345759
-0.248733
-0.00337672
-0.242016
-0.00329801
-0.235454
-0.00322142
-0.229044
-0.0031469
-0.222781
-0.00307439
-0.216661
-0.00300387
-0.210681
-0.00293527
-0.204837
-0.00286857
-0.199124
-0.00280371
-0.19354
-0.00274065
-0.18808
-0.00267936
-0.182741
-0.0026198
-0.17752
-0.00256193
-0.172414
-0.00250571
-0.167419
-0.0024511
-0.162531
-0.00239808
-0.157748
-0.0023466
-0.153067
-0.00229664
-0.148485
-0.00224816
-0.143998
-0.00220114
-0.139604
-0.00215553
-0.135301
-0.00211132
-0.131084
-0.00206847
-0.126952
-0.00202695
-0.122902
-0.00198675
-0.118931
-0.00194783
-0.115037
-0.00191017
-0.111217
-0.00187374
-0.107469
-0.00183852
-0.10379
-0.00180449
-0.100178
-0.00177163
-0.096631
-0.00173991
-0.093146
-0.00170932
-0.0897211
-0.00167983
-0.0863541
-0.00165143
-0.0830428
-0.00162409
-0.0797851
-0.0015978
-0.0765788
-0.00157254
-0.0734219
-0.0015483
-0.0703124
-0.00152506
-0.0672483
-0.00150281
-0.0642275
-0.00148153
-0.0612482
-0.0014612
-0.0583083
-0.00144181
-0.0554061
-0.00142336
-0.0525396
-0.00140583
-0.049707
-0.0013892
-0.0469065
-0.00137347
-0.0441363
-0.00135862
-0.0413945
-0.00134466
-0.0386794
-0.00133155
-0.0359892
-0.00131931
-0.0333223
-0.00130791
-0.0306769
-0.00129737
-0.0280512
-0.00128764
-0.0254437
-0.00127876
-0.0228526
-0.00127065
-0.0202763
-0.00126342
-0.0177131
-0.00125688
-0.0151613
-0.00125128
-0.0126195
-0.00124618
-0.0100859
-0.00124221
-0.00755925
-0.00123815
-0.00503827
-0.00123588
-0.00252269
-0.00123167
-0.00123261
9.41429
-28.4142
18.8198
-28.3657
28.1959
-28.2773
37.5287
-28.1424
46.8033
-27.9662
56.0051
-27.7461
65.1204
-27.4848
74.135
-27.1812
83.0356
-26.8378
91.809
-26.4539
100.442
-26.0322
108.923
-25.5723
117.24
-25.077
125.38
-24.5463
133.333
-23.9829
141.089
-23.3873
148.637
-22.762
155.968
-22.108
163.074
-21.4277
169.945
-20.7224
176.575
-19.9944
182.956
-19.2452
189.082
-18.4772
194.948
-17.6921
200.548
-16.8921
205.879
-16.079
210.936
-15.2549
215.717
-14.4219
220.219
-13.582
224.441
-12.7371
228.381
-11.8893
232.04
-11.0403
235.418
-10.1923
238.515
-9.34699
241.334
-8.50626
243.875
-7.67176
246.143
-6.84531
248.14
-6.02843
249.869
-5.22281
251.336
-4.42981
252.544
-3.65098
253.499
-2.88753
254.207
-2.14083
254.674
-1.41194
254.905
-0.702048
254.907
-0.0120525
254.688
0.657056
254.254
1.30455
253.613
1.92962
252.773
2.53171
251.742
3.11022
250.527
3.66476
249.136
4.1949
247.579
4.70043
245.862
5.1811
243.994
5.63685
241.985
6.0676
239.841
6.47345
237.571
6.85448
235.184
7.21092
232.687
7.543
230.088
7.85106
227.396
8.13546
224.618
8.39667
221.761
8.63513
218.833
8.85142
215.841
9.04609
212.792
9.21976
209.692
9.37306
206.549
9.50669
203.369
9.62133
200.157
9.7177
196.919
9.79655
193.661
9.85861
190.389
9.90465
187.107
9.93542
183.82
9.95169
180.532
9.95422
177.248
9.94376
173.972
9.92107
170.708
9.88687
167.459
9.84191
164.228
9.78687
161.019
9.72247
157.835
9.64938
154.677
9.56824
151.549
9.47971
148.452
9.38439
145.389
9.28287
142.362
9.17571
139.371
9.06347
136.42
8.94667
133.508
8.82579
130.637
8.7013
127.808
8.57366
125.022
8.44329
122.279
8.31059
119.581
8.17593
116.927
8.03967
114.318
7.90214
111.755
7.76364
109.237
7.62448
106.765
7.48491
104.338
7.3452
101.957
7.20556
99.6207
7.06622
97.3298
6.92738
95.0837
6.78921
92.8821
6.65188
90.7246
6.51555
88.6108
6.38035
86.5403
6.24641
84.5125
6.11384
82.527
5.98274
80.5831
5.8532
78.6802
5.72531
76.8179
5.59914
74.9954
5.47474
73.2121
5.35218
71.4673
5.2315
69.7604
5.11273
68.0908
4.99592
66.4577
4.88109
64.8604
4.76826
63.2982
4.65745
61.7706
4.54867
60.2767
4.44192
58.8159
4.33722
57.3875
4.23455
55.9909
4.13392
54.6252
4.03531
53.29
3.93872
51.9844
3.84414
50.708
3.75155
49.4599
3.66093
48.2396
3.57227
47.0464
3.48555
45.8798
3.40074
44.739
3.31782
43.6236
3.23677
42.5329
3.15757
41.4664
3.08018
40.4234
3.00458
39.4035
2.93074
38.4061
2.85864
37.4307
2.78825
36.4767
2.71953
35.5437
2.65247
34.6312
2.58702
33.7386
2.52317
32.8655
2.46088
32.0115
2.40013
31.1762
2.34087
30.359
2.2831
29.5596
2.22676
28.7775
2.17184
28.0124
2.11831
27.2639
2.06614
26.5316
2.0153
25.8152
1.96576
25.1142
1.91749
24.4284
1.87046
23.7575
1.82466
23.101
1.78004
22.4587
1.73659
21.8302
1.69427
21.2154
1.65306
20.6139
1.61293
20.0254
1.57387
19.4497
1.53583
18.8864
1.49881
18.3354
1.46276
17.7964
1.42768
17.2692
1.39352
16.7535
1.36028
16.2491
1.32793
15.7558
1.29644
15.2734
1.26579
14.8017
1.23596
14.3404
1.20692
13.8894
1.17867
13.4486
1.15116
13.0176
1.1244
12.5963
1.09834
12.1846
1.07298
11.7822
1.04829
11.389
1.02426
11.0049
1.00087
10.6296
0.97809
10.2631
0.955912
9.90509
0.934317
9.55548
0.913286
9.21411
0.892802
8.88083
0.87285
8.55548
0.853413
8.23793
0.834475
7.92802
0.816021
7.6256
0.798036
7.33054
0.780505
7.04268
0.763413
6.76189
0.746747
6.48802
0.730493
6.22093
0.714638
5.96047
0.69917
5.70652
0.684074
5.45892
0.66934
5.21754
0.654955
4.98224
0.640908
4.75288
0.627187
4.52932
0.613782
4.31143
0.600683
4.09905
0.587878
3.89207
0.575358
3.69034
0.563114
3.49372
0.551136
3.30208
0.539415
3.11529
0.527942
2.93321
0.51671
2.75571
0.505709
2.58266
0.494932
2.41394
0.484372
2.2494
0.47402
2.08893
0.463871
1.93241
0.453917
1.7797
0.444152
1.63069
0.434569
1.48527
0.425162
1.34331
0.415926
1.2047
0.406854
1.06933
0.397942
0.937094
0.389184
0.807889
0.380576
0.68161
0.372113
0.558161
0.363789
0.437444
0.355601
0.31937
0.347545
0.203848
0.339617
0.0907946
0.331813
-0.0198716
0.324129
-0.128228
0.316563
-0.234349
0.30911
-0.338303
0.301768
-0.440158
0.294534
-0.539975
0.287406
-0.637814
0.28038
-0.733728
0.273455
-0.827768
0.266628
-0.919983
0.259897
-1.01042
0.25326
-1.0991
0.246716
-1.18609
0.240262
-1.2714
0.233897
-1.35506
0.22762
-1.43711
0.221429
-1.51756
0.215323
-1.59644
0.209301
-1.67376
0.203362
-1.74953
0.197505
-1.82378
0.19173
-1.8965
0.186035
-1.9677
0.18042
-2.03739
0.174884
-2.10557
0.169427
-2.17224
0.164049
-2.2374
0.158748
-2.30105
0.153525
-2.36318
0.14838
-2.42378
0.143311
-2.48285
0.13832
-2.54039
0.133405
-2.59638
0.128567
-2.65082
0.123805
-2.70369
0.11912
-2.75499
0.114512
-2.80471
0.10998
-2.85283
0.105524
-2.89935
0.101144
-2.94426
0.0968408
-2.98755
0.0926138
-3.02921
0.0884629
-3.06924
0.0843883
-3.10762
0.0803899
-3.14435
0.0764675
-3.17942
0.0726212
-3.21284
0.0688509
-3.24459
0.0651564
-3.27467
0.0615378
-3.30308
0.0579947
-3.32983
0.0545271
-3.3549
0.0511348
-3.37832
0.0478176
-3.40007
0.0445753
-3.42016
0.0414076
-3.43859
0.0383143
-3.45539
0.035295
-3.47054
0.0323494
-3.48407
0.0294773
-3.49598
0.0266781
-3.50629
0.0239515
-3.515
0.0212972
-3.52214
0.0187145
-3.52771
0.0162031
-3.53174
0.0137624
-3.53424
0.011392
-3.53522
0.00909124
-3.53472
0.00685958
-3.53275
0.00469642
-3.52933
0.00260116
-3.52449
0.000573164
-3.51824
-0.00138823
-3.51061
-0.00328368
-3.50163
-0.00511389
-3.49133
-0.00687956
-3.47971
-0.00858142
-3.46683
-0.0102202
-3.45269
-0.0117966
-3.43734
-0.0133115
-3.42079
-0.0147656
-3.40308
-0.0161597
-3.38424
-0.0174946
-3.36429
-0.0187711
-3.34327
-0.01999
-3.3212
-0.0211522
-3.29812
-0.0222585
-3.27406
-0.0233098
-3.24905
-0.0243068
-3.22312
-0.0252505
-3.1963
-0.0261418
-3.16862
-0.0269815
-3.14012
-0.0277704
-3.11083
-0.0285096
-3.08079
-0.0291998
-3.05001
-0.029842
-3.01854
-0.0304371
-2.9864
-0.030986
-2.95364
-0.0314897
-2.92028
-0.031949
-2.88636
-0.0323649
-2.8519
-0.0327384
-2.81694
-0.0330703
-2.78152
-0.0333618
-2.74567
-0.0336136
-2.70941
-0.0338269
-2.67278
-0.0340027
-2.63581
-0.0341418
-2.59854
-0.0342453
-2.561
-0.0343143
-2.52322
-0.0343498
-2.48522
-0.0343527
-2.44705
-0.0343243
-2.40874
-0.0342655
-2.37031
-0.0341774
-2.33179
-0.0340611
-2.29322
-0.0339177
-2.25462
-0.0337483
-2.21603
-0.033554
-2.17748
-0.0333359
-2.13899
-0.0330952
-2.10059
-0.0328329
-2.06231
-0.0325503
-2.02418
-0.0322484
-1.98622
-0.0319283
-1.94845
-0.0315912
-1.91092
-0.0312382
-1.87362
-0.0308704
-1.8366
-0.0304889
-1.79987
-0.0300949
-1.76346
-0.0296893
-1.72738
-0.0292733
-1.69165
-0.0288478
-1.6563
-0.028414
-1.62133
-0.0279728
-1.58678
-0.0275251
-1.55264
-0.027072
-1.51894
-0.0266144
-1.48569
-0.026153
-1.4529
-0.0256889
-1.42058
-0.0252228
-1.38875
-0.0247554
-1.3574
-0.0242877
-1.32656
-0.0238202
-1.29622
-0.0233537
-1.26638
-0.0228887
-1.23707
-0.022426
-1.20827
-0.021966
-1.18
-0.0215093
-1.15225
-0.0210564
-1.12502
-0.0206077
-1.09832
-0.0201637
-1.07214
-0.0197247
-1.04648
-0.0192911
-1.02134
-0.0188631
-0.996719
-0.0184411
-0.97261
-0.0180253
-0.949009
-0.017616
-0.925913
-0.0172132
-0.903315
-0.0168171
-0.88121
-0.0164279
-0.859592
-0.0160457
-0.838455
-0.0156706
-0.817791
-0.0153026
-0.797594
-0.0149418
-0.777856
-0.0145881
-0.75857
-0.0142416
-0.739727
-0.0139023
-0.721321
-0.0135701
-0.703343
-0.013245
-0.685785
-0.012927
-0.668639
-0.012616
-0.651896
-0.0123119
-0.635549
-0.0120146
-0.61959
-0.0117241
-0.60401
-0.0114403
-0.5888
-0.011163
-0.573954
-0.0108922
-0.559463
-0.0106278
-0.545319
-0.0103696
-0.531514
-0.0101175
-0.518041
-0.00987156
-0.504891
-0.0096315
-0.492058
-0.00939725
-0.479534
-0.00916871
-0.467312
-0.00894575
-0.455383
-0.00872827
-0.443743
-0.00851615
-0.432382
-0.00830929
-0.421296
-0.00810756
-0.410476
-0.00791087
-0.399917
-0.0077191
-0.389612
-0.00753215
-0.379555
-0.00734992
-0.369739
-0.00717229
-0.360159
-0.00699917
-0.350809
-0.00683046
-0.341682
-0.00666606
-0.332774
-0.00650587
-0.324078
-0.0063498
-0.31559
-0.00619776
-0.307304
-0.00604965
-0.299214
-0.00590539
-0.291316
-0.00576489
-0.283605
-0.00562807
-0.276076
-0.00549484
-0.268724
-0.00536511
-0.261544
-0.00523882
-0.254533
-0.00511588
-0.247685
-0.00499622
-0.240996
-0.00487976
-0.234462
-0.00476643
-0.228079
-0.00465616
-0.221842
-0.00454888
-0.215748
-0.00444452
-0.209794
-0.00434303
-0.203974
-0.00424432
-0.198285
-0.00414835
-0.192724
-0.00405505
-0.187287
-0.00396437
-0.181971
-0.00387624
-0.176772
-0.0037906
-0.171687
-0.00370742
-0.166713
-0.00362662
-0.161846
-0.00354816
-0.157084
-0.003472
-0.152422
-0.00339807
-0.147859
-0.00332634
-0.143391
-0.00325676
-0.139016
-0.00318928
-0.134731
-0.00312386
-0.130532
-0.00306045
-0.126417
-0.00299903
-0.122384
-0.00293954
-0.11843
-0.00288195
-0.114552
-0.00282623
-0.110749
-0.00277233
-0.107016
-0.00272022
-0.103353
-0.00266987
-0.0997562
-0.00262124
-0.0962238
-0.00257431
-0.0927535
-0.00252904
-0.0893431
-0.00248541
-0.0859903
-0.00244338
-0.0826929
-0.00240293
-0.0794489
-0.00236404
-0.0762561
-0.00232667
-0.0731126
-0.0022908
-0.0700162
-0.00225641
-0.0669649
-0.00222348
-0.0639569
-0.00219199
-0.0609901
-0.00216191
-0.0580627
-0.00213323
-0.0551727
-0.00210592
-0.0523183
-0.00207998
-0.0494976
-0.00205537
-0.0467089
-0.0020321
-0.0439503
-0.00201013
-0.04122
-0.00198946
-0.0385164
-0.00197007
-0.0358376
-0.00195196
-0.0331819
-0.0019351
-0.0305476
-0.00191949
-0.027933
-0.0019051
-0.0253365
-0.00189196
-0.0227562
-0.00187999
-0.0201907
-0.00186929
-0.0176382
-0.00185966
-0.0150971
-0.00185139
-0.0125656
-0.001844
-0.0100423
-0.00183817
-0.00752537
-0.00183276
-0.00501409
-0.00182942
-0.0025102
-0.0018254
-0.00182472
9.41067
-37.8455
18.8084
-37.7839
28.1766
-37.666
37.5014
-37.4874
46.7679
-37.2527
55.9615
-36.9595
65.0684
-36.6111
74.0744
-36.2061
82.9661
-35.748
91.73
-35.2358
100.354
-34.6733
108.824
-34.0596
117.13
-33.3989
125.259
-32.6908
133.2
-31.9392
140.943
-31.1445
148.479
-30.3104
155.796
-29.438
162.887
-28.5304
169.744
-27.5896
176.358
-26.6185
182.723
-25.6193
188.832
-24.5949
194.681
-23.5478
200.263
-22.4808
205.575
-21.3964
210.613
-20.2975
215.375
-19.1867
219.857
-18.0667
224.058
-16.9401
227.978
-15.8097
231.616
-14.6779
234.972
-13.5474
238.047