/*--------------------------------*- C++ -*----------------------------------*\
| =========                 |                                                 |
| \\      /  F ield         | OpenFOAM: The Open Source CFD Toolbox           |
|  \\    /   O peration     | Version:  v2012                                 |
|   \\  /    A nd           | Website:  www.openfoam.com                      |
|    \\/     M anipulation  |                                                 |
\*---------------------------------------------------------------------------*/
FoamFile
{
    version     2.0;
    format      ascii;
    class       volScalarField;
    location    "50";
    object      theta;
}
// * * * * * * * * * * * * * * * * * * * * * * * * * * * * * * * * * * * * * //

dimensions      [0 0 0 1 0 0 0];


internalField   nonuniform List<scalar> 
65536
(
0.0593
0.0591866
0.0591229
0.0589826
0.0588208
0.0586172
0.0583779
0.0581021
0.0577907
0.0574446
0.0570646
0.0566523
0.0562088
0.0557358
0.0552346
0.0547072
0.054155
0.05358
0.0529838
0.0523682
0.0517351
0.0510863
0.0504236
0.0497488
0.0490638
0.0483702
0.0476699
0.0469646
0.0462559
0.0455454
0.0448347
0.0441252
0.0434183
0.0427154
0.0420177
0.0413263
0.0406424
0.039967
0.0393008
0.0386449
0.0379998
0.0373663
0.0367449
0.0361362
0.0355404
0.034958
0.0343892
0.0338342
0.0332931
0.0327661
0.032253
0.0317539
0.0312687
0.0307972
0.0303393
0.0298948
0.0294634
0.0290448
0.0286388
0.028245
0.0278631
0.0274928
0.0271337
0.0267855
0.0264477
0.0261201
0.0258022
0.0254936
0.0251941
0.0249033
0.0246207
0.0243461
0.0240791
0.0238193
0.0235665
0.0233203
0.0230804
0.0228465
0.0226183
0.0223956
0.0221779
0.0219651
0.0217569
0.021553
0.0213531
0.0211571
0.0209646
0.0207755
0.0205895
0.0204063
0.0202257
0.0200475
0.0198715
0.0196974
0.0195251
0.0193542
0.0191847
0.0190162
0.0188486
0.0186816
0.0185151
0.0183489
0.0181826
0.0180162
0.0178494
0.017682
0.0175138
0.0173447
0.0171744
0.0170028
0.0168296
0.0166547
0.0164779
0.016299
0.0161178
0.0159343
0.0157481
0.0155593
0.0153675
0.0151728
0.0149749
0.0147737
0.0145691
0.0143609
0.0141492
0.0139337
0.0137144
0.0134911
0.013264
0.0130327
0.0127974
0.012558
0.0123144
0.0120666
0.0118146
0.0115584
0.011298
0.0110335
0.0107648
0.010492
0.0102151
0.00993424
0.00964947
0.00936086
0.0090685
0.00877252
0.00847301
0.00817011
0.00786394
0.00755467
0.00724243
0.0069274
0.00660975
0.00628966
0.00596732
0.00564293
0.00531669
0.00498882
0.00465954
0.00432908
0.00399765
0.00366551
0.0033329
0.00300005
0.00266722
0.00233466
0.00200263
0.00167138
0.00134117
0.00101226
0.000684903
0.000359362
3.58902e-05
-0.000285257
-0.000603829
-0.000919576
-0.00123226
-0.00154163
-0.00184745
-0.00214951
-0.00244757
-0.00274143
-0.00303087
-0.00331569
-0.0035957
-0.00387073
-0.0041406
-0.00440516
-0.00466424
-0.00491772
-0.00516547
-0.00540737
-0.00564333
-0.00587325
-0.00609707
-0.00631472
-0.00652616
-0.00673135
-0.00693028
-0.00712295
-0.00730936
-0.00748954
-0.00766353
-0.00783138
-0.00799317
-0.00814897
-0.00829888
-0.00844301
-0.00858148
-0.00871442
-0.00884197
-0.0089643
-0.00908156
-0.00919393
-0.0093016
-0.00940475
-0.00950359
-0.00959832
-0.00968916
-0.00977632
-0.00986002
-0.00994049
-0.0100179
-0.0100926
-0.0101647
-0.0102345
-0.0103022
-0.010368
-0.0104321
-0.0104947
-0.0105562
-0.0106165
-0.0106761
-0.0107349
-0.0107933
-0.0108514
-0.0109093
-0.0109672
-0.0110253
-0.0110837
-0.0111424
-0.0112017
-0.0112615
-0.0113221
-0.0113834
-0.0114455
-0.0115085
-0.0115723
-0.0116371
-0.0117028
-0.0117695
-0.011837
-0.0119054
-0.0119747
-0.0120448
-0.0121156
-0.0121871
-0.0122592
-0.0123318
-0.0124048
-0.0124782
-0.0125517
-0.0126253
-0.0126989
-0.0127723
-0.0128454
-0.0129181
-0.0129901
-0.0130615
-0.013132
-0.0132014
-0.0132697
-0.0133366
-0.0134021
-0.013466
-0.0135281
-0.0135883
-0.0136464
-0.0137023
-0.0137559
-0.013807
-0.0138556
-0.0139014
-0.0139443
-0.0139844
-0.0140213
-0.0140551
-0.0140856
-0.0141127
-0.0141365
-0.0141567
-0.0141732
-0.0141862
-0.0141954
-0.0142008
-0.0142024
-0.0142002
-0.014194
-0.0141839
-0.0141699
-0.0141519
-0.0141299
-0.014104
-0.014074
-0.0140401
-0.0140022
-0.0139604
-0.0139147
-0.013865
-0.0138115
-0.0137542
-0.013693
-0.0136282
-0.0135596
-0.0134874
-0.0134115
-0.0133322
-0.0132494
-0.0131632
-0.0130736
-0.0129808
-0.0128847
-0.0127856
-0.0126834
-0.0125782
-0.0124702
-0.0123593
-0.0122458
-0.0121296
-0.0120109
-0.0118897
-0.0117662
-0.0116404
-0.0115125
-0.0113825
-0.0112505
-0.0111166
-0.010981
-0.0108437
-0.0107048
-0.0105645
-0.0104228
-0.0102798
-0.0101357
-0.00999047
-0.00984434
-0.00969736
-0.00954964
-0.0094013
-0.00925243
-0.00910314
-0.00895355
-0.00880375
-0.00865385
-0.00850396
-0.00835418
-0.00820461
-0.00805536
-0.00790653
-0.00775821
-0.00761051
-0.00746351
-0.00731732
-0.00717203
-0.00702771
-0.00688447
-0.00674237
-0.00660151
-0.00646195
-0.00632377
-0.00618705
-0.00605184
-0.0059182
-0.00578621
-0.00565591
-0.00552735
-0.00540057
-0.00527563
-0.00515255
-0.00503138
-0.00491214
-0.00479486
-0.00467956
-0.00456626
-0.00445498
-0.00434572
-0.00423849
-0.0041333
-0.00403014
-0.00392903
-0.00382994
-0.00373287
-0.00363781
-0.00354475
-0.00345368
-0.00336456
-0.00327739
-0.00319215
-0.0031088
-0.00302733
-0.00294771
-0.00286991
-0.00279391
-0.00271968
-0.00264718
-0.00257639
-0.00250727
-0.00243981
-0.00237395
-0.00230968
-0.00224697
-0.00218577
-0.00212607
-0.00206782
-0.002011
-0.00195558
-0.00190153
-0.00184882
-0.00179742
-0.00174729
-0.00169842
-0.00165077
-0.00160431
-0.00155902
-0.00151488
-0.00147185
-0.0014299
-0.00138903
-0.00134919
-0.00131037
-0.00127254
-0.00123568
-0.00119976
-0.00116477
-0.00113068
-0.00109748
-0.00106513
-0.00103363
-0.00100295
-0.000973064
-0.000943966
-0.000915633
-0.000888048
-0.000861192
-0.00083505
-0.000809604
-0.000784839
-0.000760738
-0.000737286
-0.00071447
-0.000692273
-0.000670682
-0.000649684
-0.000629264
-0.00060941
-0.000590109
-0.000571349
-0.000553118
-0.000535403
-0.000518195
-0.000501481
-0.000485251
-0.000469495
-0.000454203
-0.000439364
-0.000424969
-0.000411009
-0.000397475
-0.000384358
-0.00037165
-0.000359342
-0.000347428
-0.000335898
-0.000324745
-0.000313963
-0.000303545
-0.000293483
-0.000283771
-0.000274403
-0.000265373
-0.000256676
-0.000248304
-0.000240254
-0.00023252
-0.000225096
-0.000217978
-0.000211162
-0.000204643
-0.000198417
-0.00019248
-0.000186828
-0.000181457
-0.000176364
-0.000171546
-0.000166999
-0.000162721
-0.000158708
-0.000154959
-0.00015147
-0.00014824
-0.000145266
-0.000142547
-0.000140081
-0.000137866
-0.0001359
-0.000134183
-0.000132714
-0.00013149
-0.000130513
-0.000129779
-0.000129291
-0.000129045
0.0588307
0.0587294
0.058646
0.0585126
0.0583606
0.0581588
0.0579292
0.0576556
0.0573508
0.0570067
0.0566317
0.0562214
0.0557819
0.0553108
0.054813
0.0542875
0.0537381
0.053165
0.052571
0.0519573
0.0513262
0.050679
0.050018
0.0493446
0.0486611
0.0479688
0.0472697
0.0465655
0.0458578
0.0451482
0.0444384
0.0437296
0.0430234
0.042321
0.0416238
0.0409328
0.0402493
0.039574
0.0389081
0.0382522
0.0376072
0.0369736
0.0363521
0.0357431
0.0351471
0.0345644
0.0339952
0.0334397
0.032898
0.0323703
0.0318566
0.0313567
0.0308707
0.0303984
0.0299395
0.029494
0.0290616
0.0286419
0.0282348
0.0278399
0.0274568
0.0270852
0.0267249
0.0263753
0.0260362
0.0257072
0.0253879
0.0250779
0.024777
0.0244846
0.0242006
0.0239245
0.0236559
0.0233947
0.0231403
0.0228926
0.0226512
0.0224157
0.022186
0.0219617
0.0217425
0.0215282
0.0213185
0.0211131
0.0209118
0.0207143
0.0205204
0.0203298
0.0201424
0.0199578
0.0197758
0.0195963
0.019419
0.0192436
0.01907
0.0188979
0.0187271
0.0185574
0.0183886
0.0182205
0.0180529
0.0178855
0.0177182
0.0175507
0.0173829
0.0172145
0.0170454
0.0168753
0.0167041
0.0165315
0.0163574
0.0161817
0.016004
0.0158243
0.0156424
0.0154581
0.0152712
0.0150817
0.0148892
0.0146938
0.0144952
0.0142934
0.0140882
0.0138795
0.0136671
0.0134511
0.0132313
0.0130076
0.0127799
0.0125482
0.0123125
0.0120726
0.0118286
0.0115804
0.011328
0.0110715
0.0108108
0.0105459
0.0102769
0.0100038
0.00972661
0.00944548
0.00916045
0.0088716
0.00857902
0.00828282
0.0079831
0.00768001
0.00737366
0.00706421
0.00675182
0.00643663
0.00611884
0.00579861
0.00547614
0.00515163
0.00482528
0.00449731
0.00416792
0.00383736
0.00350585
0.00317362
0.00284093
0.002508
0.0021751
0.00184247
0.00151037
0.00117906
0.000848788
0.000519815
0.0001924
-0.0001332
-0.000456729
-0.000777934
-0.00109656
-0.00141237
-0.00172511
-0.00203454
-0.00234042
-0.00264254
-0.00294067
-0.00323459
-0.00352409
-0.00380898
-0.00408906
-0.00436416
-0.00463411
-0.00489874
-0.0051579
-0.00541146
-0.00565929
-0.00590128
-0.00613732
-0.00636734
-0.00659125
-0.00680899
-0.00702053
-0.00722582
-0.00742485
-0.00761762
-0.00780413
-0.00798442
-0.00815852
-0.00832649
-0.00848839
-0.00864431
-0.00879433
-0.00893858
-0.00907717
-0.00921023
-0.0093379
-0.00946035
-0.00957773
-0.00969022
-0.00979801
-0.00990129
-0.0100003
-0.0100951
-0.0101861
-0.0102734
-0.0103572
-0.0104378
-0.0105153
-0.0105901
-0.0106624
-0.0107323
-0.0108001
-0.010866
-0.0109302
-0.010993
-0.0110545
-0.011115
-0.0111746
-0.0112336
-0.0112921
-0.0113502
-0.0114083
-0.0114663
-0.0115245
-0.0115829
-0.0116418
-0.0117011
-0.0117611
-0.0118217
-0.0118831
-0.0119453
-0.0120083
-0.0120723
-0.0121371
-0.0122029
-0.0122696
-0.0123373
-0.0124058
-0.0124751
-0.0125452
-0.0126161
-0.0126877
-0.0127598
-0.0128325
-0.0129055
-0.0129789
-0.0130525
-0.0131262
-0.0131998
-0.0132732
-0.0133463
-0.013419
-0.0134911
-0.0135625
-0.013633
-0.0137025
-0.0137708
-0.0138377
-0.0139032
-0.0139671
-0.0140292
-0.0140894
-0.0141475
-0.0142035
-0.0142571
-0.0143082
-0.0143567
-0.0144025
-0.0144455
-0.0144855
-0.0145224
-0.0145562
-0.0145867
-0.0146138
-0.0146375
-0.0146577
-0.0146743
-0.0146872
-0.0146964
-0.0147018
-0.0147034
-0.0147011
-0.0146949
-0.0146848
-0.0146708
-0.0146527
-0.0146307
-0.0146047
-0.0145748
-0.0145408
-0.0145029
-0.0144611
-0.0144153
-0.0143656
-0.0143121
-0.0142547
-0.0141936
-0.0141287
-0.01406
-0.0139878
-0.0139119
-0.0138326
-0.0137497
-0.0136635
-0.0135739
-0.013481
-0.0133849
-0.0132857
-0.0131835
-0.0130783
-0.0129703
-0.0128594
-0.0127458
-0.0126296
-0.0125108
-0.0123897
-0.0122661
-0.0121403
-0.0120123
-0.0118823
-0.0117503
-0.0116164
-0.0114808
-0.0113434
-0.0112045
-0.0110642
-0.0109224
-0.0107794
-0.0106353
-0.0104901
-0.0103439
-0.0101969
-0.0100492
-0.0099008
-0.00975192
-0.00960261
-0.009453
-0.00930318
-0.00915327
-0.00900336
-0.00885356
-0.00870398
-0.00855472
-0.00840587
-0.00825755
-0.00810983
-0.00796283
-0.00781663
-0.00767132
-0.007527
-0.00738375
-0.00724165
-0.00710078
-0.00696122
-0.00682304
-0.00668631
-0.0065511
-0.00641747
-0.00628548
-0.00615517
-0.00602661
-0.00589984
-0.0057749
-0.00565183
-0.00553067
-0.00541143
-0.00529416
-0.00517887
-0.00506557
-0.0049543
-0.00484504
-0.00473782
-0.00463264
-0.0045295
-0.00442839
-0.00432931
-0.00423225
-0.00413721
-0.00404416
-0.00395309
-0.00386399
-0.00377683
-0.00369159
-0.00360826
-0.0035268
-0.00344719
-0.00336941
-0.00329341
-0.00321919
-0.0031467
-0.00307592
-0.00300682
-0.00293936
-0.00287352
-0.00280926
-0.00274655
-0.00268536
-0.00262567
-0.00256743
-0.00251062
-0.00245521
-0.00240117
-0.00234847
-0.00229707
-0.00224695
-0.00219809
-0.00215044
-0.002104
-0.00205872
-0.00201458
-0.00197155
-0.00192962
-0.00188875
-0.00184892
-0.0018101
-0.00177228
-0.00173542
-0.00169952
-0.00166453
-0.00163045
-0.00159725
-0.00156491
-0.00153341
-0.00150273
-0.00147286
-0.00144376
-0.00141544
-0.00138785
-0.001361
-0.00133487
-0.00130942
-0.00128466
-0.00126057
-0.00123712
-0.00121431
-0.00119211
-0.00117053
-0.00114953
-0.00112911
-0.00110926
-0.00108997
-0.00107121
-0.00105298
-0.00103527
-0.00101807
-0.00100135
-0.000985127
-0.000969374
-0.000954084
-0.000939248
-0.000924855
-0.000910898
-0.000897366
-0.000884252
-0.000871546
-0.000859241
-0.000847328
-0.0008358
-0.00082465
-0.000813869
-0.000803453
-0.000793393
-0.000783683
-0.000774317
-0.000765288
-0.000756592
-0.000748222
-0.000740173
-0.00073244
-0.000725018
-0.000717902
-0.000711087
-0.000704569
-0.000698345
-0.000692408
-0.000686757
-0.000681387
-0.000676295
-0.000671478
-0.000666932
-0.000662655
-0.000658643
-0.000654894
-0.000651406
-0.000648177
-0.000645204
-0.000642486
-0.00064002
-0.000637805
-0.00063584
-0.000634124
-0.000632655
-0.000631431
-0.000630454
-0.000629722
-0.000629234
-0.000628989
0.0592129
0.0592095
0.059122
0.0590046
0.0588451
0.0586447
0.0584089
0.0581333
0.057824
0.0574775
0.0570989
0.0566862
0.0562434
0.05577
0.0552692
0.0547415
0.0541894
0.053614
0.0530176
0.0524016
0.0517682
0.051119
0.0504559
0.0497807
0.0490953
0.0484014
0.0477007
0.046995
0.046286
0.0455752
0.0448642
0.0441544
0.0434474
0.0427443
0.0420466
0.0413552
0.0406713
0.0399959
0.0393299
0.0386741
0.0380293
0.0373961
0.0367751
0.0361667
0.0355714
0.0349894
0.0344211
0.0338667
0.0333262
0.0327997
0.0322872
0.0317887
0.0313041
0.0308332
0.0303759
0.0299319
0.0295009
0.0290828
0.0286772
0.0282839
0.0279023
0.0275323
0.0271734
0.0268254
0.0264877
0.0261602
0.0258423
0.0255337
0.0252341
0.0249431
0.0246603
0.0243854
0.024118
0.0238579
0.0236046
0.023358
0.0231175
0.022883
0.0226542
0.0224308
0.0222124
0.0219989
0.0217899
0.0215853
0.0213846
0.0211878
0.0209945
0.0208045
0.0206176
0.0204335
0.0202521
0.020073
0.0198961
0.0197211
0.0195479
0.0193762
0.0192058
0.0190364
0.0188679
0.0187001
0.0185328
0.0183657
0.0181986
0.0180314
0.0178638
0.0176956
0.0175267
0.0173568
0.0171858
0.0170135
0.0168396
0.016664
0.0164866
0.0163071
0.0161254
0.0159412
0.0157546
0.0155652
0.0153729
0.0151777
0.0149793
0.0147777
0.0145727
0.0143642
0.0141521
0.0139363
0.0137167
0.0134932
0.0132657
0.0130343
0.0127988
0.0125592
0.0123154
0.0120675
0.0118154
0.0115591
0.0112987
0.0110341
0.0107653
0.0104925
0.0102157
0.00993484
0.00965012
0.00936158
0.00906932
0.00877343
0.00847404
0.00817127
0.00786526
0.00755614
0.00724408
0.00692923
0.00661177
0.00629188
0.00596975
0.00564557
0.00531956
0.00499192
0.00466287
0.00433264
0.00400145
0.00366955
0.00333718
0.00300457
0.00267198
0.00233966
0.00200786
0.00167685
0.00134686
0.00101817
0.000691034
0.000365702
4.24335e-05
-0.000278519
-0.000596905
-0.000912475
-0.00122499
-0.0015342
-0.00183988
-0.00214181
-0.00243974
-0.00273349
-0.00302282
-0.00330756
-0.0035875
-0.00386247
-0.00413229
-0.0043968
-0.00465587
-0.00490934
-0.00515709
-0.005399
-0.00563499
-0.00586496
-0.00608883
-0.00630654
-0.00651806
-0.00672334
-0.00692237
-0.00711515
-0.00730168
-0.007482
-0.00765613
-0.00782414
-0.00798609
-0.00814206
-0.00829216
-0.00843647
-0.00857514
-0.00870828
-0.00883604
-0.00895859
-0.00907607
-0.00918867
-0.00929657
-0.00939996
-0.00949904
-0.00959402
-0.0096851
-0.00977251
-0.00985646
-0.00993718
-0.0100149
-0.0100898
-0.0101622
-0.0102322
-0.0103002
-0.0103662
-0.0104306
-0.0104935
-0.0105552
-0.0106158
-0.0106756
-0.0107347
-0.0107933
-0.0108516
-0.0109098
-0.0109679
-0.0110263
-0.0110848
-0.0111438
-0.0112033
-0.0112634
-0.0113241
-0.0113856
-0.0114479
-0.0115111
-0.0115751
-0.0116401
-0.011706
-0.0117728
-0.0118405
-0.0119091
-0.0119785
-0.0120488
-0.0121197
-0.0121914
-0.0122636
-0.0123363
-0.0124094
-0.0124829
-0.0125565
-0.0126302
-0.0127038
-0.0127773
-0.0128505
-0.0129232
-0.0129954
-0.0130667
-0.0131373
-0.0132068
-0.0132751
-0.013342
-0.0134075
-0.0134714
-0.0135335
-0.0135937
-0.0136518
-0.0137077
-0.0137613
-0.0138124
-0.0138609
-0.0139066
-0.0139496
-0.0139895
-0.0140264
-0.0140602
-0.0140906
-0.0141177
-0.0141413
-0.0141615
-0.014178
-0.0141908
-0.0142
-0.0142053
-0.0142068
-0.0142045
-0.0141982
-0.0141881
-0.0141739
-0.0141558
-0.0141337
-0.0141077
-0.0140776
-0.0140436
-0.0140056
-0.0139637
-0.0139178
-0.0138681
-0.0138145
-0.013757
-0.0136958
-0.0136308
-0.0135621
-0.0134898
-0.0134138
-0.0133344
-0.0132514
-0.0131651
-0.0130754
-0.0129825
-0.0128863
-0.0127871
-0.0126847
-0.0125795
-0.0124713
-0.0123604
-0.0122467
-0.0121304
-0.0120116
-0.0118903
-0.0117667
-0.0116408
-0.0115128
-0.0113827
-0.0112506
-0.0111166
-0.0109809
-0.0108435
-0.0107046
-0.0105641
-0.0104223
-0.0102792
-0.010135
-0.00998975
-0.00984353
-0.00969647
-0.00954868
-0.00940026
-0.00925132
-0.00910196
-0.0089523
-0.00880243
-0.00865247
-0.00850251
-0.00835268
-0.00820305
-0.00805375
-0.00790487
-0.0077565
-0.00760876
-0.00746172
-0.00731549
-0.00717016
-0.00702582
-0.00688254
-0.00674042
-0.00659953
-0.00645996
-0.00632176
-0.00618502
-0.0060498
-0.00591617
-0.00578417
-0.00565386
-0.0055253
-0.00539853
-0.00527359
-0.00515052
-0.00502936
-0.00491013
-0.00479287
-0.00467758
-0.0045643
-0.00445304
-0.0043438
-0.00423659
-0.00413142
-0.00402829
-0.0039272
-0.00382814
-0.0037311
-0.00363607
-0.00354304
-0.00345199
-0.00336291
-0.00327577
-0.00319055
-0.00310724
-0.0030258
-0.00294621
-0.00286844
-0.00279247
-0.00271827
-0.0026458
-0.00257504
-0.00250595
-0.00243851
-0.00237269
-0.00230845
-0.00224576
-0.00218459
-0.00212491
-0.00206669
-0.0020099
-0.00195451
-0.00190048
-0.00184779
-0.00179641
-0.00174631
-0.00169746
-0.00164983
-0.0016034
-0.00155813
-0.00151401
-0.001471
-0.00142908
-0.00138822
-0.0013484
-0.0013096
-0.00127179
-0.00123494
-0.00119905
-0.00116407
-0.00113
-0.00109681
-0.00106448
-0.00103299
-0.00100232
-0.000972458
-0.000943374
-0.000915056
-0.000887484
-0.000860642
-0.000834512
-0.000809079
-0.000784325
-0.000760237
-0.000736797
-0.000713991
-0.000691806
-0.000670226
-0.000649237
-0.000628828
-0.000608984
-0.000589693
-0.000570942
-0.00055272
-0.000535014
-0.000517814
-0.000501109
-0.000484887
-0.000469139
-0.000453854
-0.000439023
-0.000424635
-0.000410682
-0.000397155
-0.000384044
-0.000371343
-0.000359041
-0.000347132
-0.000335608
-0.000324462
-0.000313685
-0.000303272
-0.000293215
-0.000283508
-0.000274145
-0.00026512
-0.000256426
-0.000248059
-0.000240013
-0.000232282
-0.000224862
-0.000217749
-0.000210936
-0.00020442
-0.000198197
-0.000192263
-0.000186614
-0.000181246
-0.000176155
-0.000171339
-0.000166795
-0.000162519
-0.000158508
-0.000154761
-0.000151274
-0.000148046
-0.000145074
-0.000142356
-0.000139891
-0.000137677
-0.000135713
-0.000133997
-0.000132528
-0.000131305
-0.000130329
-0.000129596
-0.00012911
-0.000128865
0.0588191
0.0587625
0.058679
0.0585559
0.0583942
0.0581944
0.0579568
0.0576816
0.0573707
0.0570237
0.0566433
0.0562292
0.0557844
0.0553092
0.0548061
0.0542761
0.0537214
0.0531435
0.0525445
0.0519258
0.0512897
0.0506377
0.0499718
0.0492938
0.0486055
0.0479088
0.0472054
0.046497
0.0457854
0.045072
0.0443586
0.0436465
0.0429372
0.042232
0.0415321
0.0408388
0.0401531
0.039476
0.0388085
0.0381513
0.0375051
0.0368707
0.0362487
0.0356393
0.0350432
0.0344606
0.0338917
0.0333368
0.032796
0.0322693
0.0317567
0.0312582
0.0307736
0.0303028
0.0298457
0.0294019
0.0289713
0.0285536
0.0281484
0.0277554
0.0273744
0.0270049
0.0266465
0.026299
0.0259619
0.0256349
0.0253175
0.0250095
0.0247104
0.0244199
0.0241376
0.0238632
0.0235964
0.0233367
0.0230839
0.0228376
0.0225975
0.0223634
0.022135
0.0219118
0.0216938
0.0214805
0.0212718
0.0210674
0.0208669
0.0206703
0.0204771
0.0202873
0.0201005
0.0199166
0.0197352
0.0195562
0.0193794
0.0192045
0.0190313
0.0188596
0.0186892
0.0185199
0.0183514
0.0181836
0.0180162
0.0178491
0.017682
0.0175148
0.0173472
0.017179
0.0170101
0.0168402
0.0166692
0.0164968
0.0163229
0.0161474
0.0159699
0.0157904
0.0156087
0.0154246
0.015238
0.0150486
0.0148564
0.0146613
0.014463
0.0142614
0.0140565
0.0138481
0.0136361
0.0134204
0.013201
0.0129776
0.0127504
0.0125191
0.0122838
0.0120444
0.0118009
0.0115532
0.0113013
0.0110453
0.0107851
0.0105208
0.0102524
0.00997989
0.00970336
0.00942287
0.00913849
0.0088503
0.0085584
0.00826289
0.00796388
0.0076615
0.00735588
0.00704716
0.0067355
0.00642107
0.00610403
0.00578456
0.00546285
0.0051391
0.00481351
0.0044863
0.00415768
0.00382787
0.00349711
0.00316563
0.00283368
0.00250148
0.00216931
0.00183739
0.00150599
0.00117536
0.000845765
0.00051745
0.000190677
-0.000134298
-0.000457221
-0.000777839
-0.0010959
-0.00141116
-0.00172337
-0.0020323
-0.00233771
-0.00263937
-0.00293706
-0.00323057
-0.00351969
-0.00380422
-0.00408398
-0.00435877
-0.00462843
-0.00489281
-0.00515174
-0.0054051
-0.00565275
-0.00589458
-0.0061305
-0.00636041
-0.00658425
-0.00680194
-0.00701344
-0.00721873
-0.00741778
-0.00761058
-0.00779716
-0.00797753
-0.00815173
-0.00831982
-0.00848186
-0.00863794
-0.00878814
-0.00893258
-0.00907138
-0.00920466
-0.00933257
-0.00945527
-0.00957292
-0.00968569
-0.00979377
-0.00989734
-0.00999661
-0.0100918
-0.0101831
-0.0102707
-0.0103549
-0.0104358
-0.0105137
-0.0105889
-0.0106614
-0.0107317
-0.0107999
-0.0108661
-0.0109307
-0.0109939
-0.0110558
-0.0111166
-0.0111766
-0.0112359
-0.0112948
-0.0113533
-0.0114117
-0.0114701
-0.0115286
-0.0115874
-0.0116466
-0.0117063
-0.0117665
-0.0118275
-0.0118892
-0.0119517
-0.012015
-0.0120792
-0.0121444
-0.0122104
-0.0122774
-0.0123452
-0.012414
-0.0124835
-0.0125539
-0.012625
-0.0126967
-0.0127691
-0.0128419
-0.0129151
-0.0129887
-0.0130624
-0.0131361
-0.0132099
-0.0132834
-0.0133566
-0.0134294
-0.0135016
-0.013573
-0.0136436
-0.0137131
-0.0137814
-0.0138484
-0.0139139
-0.0139777
-0.0140398
-0.0141
-0.0141581
-0.014214
-0.0142675
-0.0143186
-0.014367
-0.0144127
-0.0144556
-0.0144955
-0.0145323
-0.014566
-0.0145964
-0.0146234
-0.0146469
-0.014667
-0.0146834
-0.0146961
-0.0147052
-0.0147104
-0.0147118
-0.0147094
-0.014703
-0.0146927
-0.0146785
-0.0146603
-0.0146381
-0.0146119
-0.0145817
-0.0145476
-0.0145095
-0.0144674
-0.0144215
-0.0143716
-0.0143178
-0.0142602
-0.0141989
-0.0141338
-0.0140649
-0.0139925
-0.0139164
-0.0138368
-0.0137538
-0.0136673
-0.0135775
-0.0134844
-0.0133882
-0.0132888
-0.0131863
-0.0130809
-0.0129727
-0.0128616
-0.0127478
-0.0126314
-0.0125125
-0.0123911
-0.0122673
-0.0121413
-0.0120132
-0.011883
-0.0117508
-0.0116167
-0.0114809
-0.0113434
-0.0112043
-0.0110638
-0.0109219
-0.0107787
-0.0106344
-0.010489
-0.0103427
-0.0101956
-0.0100477
-0.0098992
-0.00975018
-0.00960075
-0.00945101
-0.00930107
-0.00915104
-0.00900102
-0.00885112
-0.00870144
-0.00855208
-0.00840314
-0.00825473
-0.00810694
-0.00795986
-0.00781359
-0.00766822
-0.00752384
-0.00738054
-0.00723839
-0.00709748
-0.00695788
-0.00681967
-0.00668292
-0.00654769
-0.00641404
-0.00628204
-0.00615173
-0.00602317
-0.0058964
-0.00577147
-0.00564841
-0.00552726
-0.00540805
-0.00529079
-0.00517553
-0.00506227
-0.00495102
-0.0048418
-0.00473462
-0.00462948
-0.00452637
-0.00442531
-0.00432627
-0.00422926
-0.00413426
-0.00404126
-0.00395024
-0.00386119
-0.00377408
-0.0036889
-0.00360562
-0.00352421
-0.00344465
-0.00336692
-0.00329098
-0.0032168
-0.00314436
-0.00307363
-0.00300458
-0.00293717
-0.00287138
-0.00280716
-0.0027445
-0.00268336
-0.00262371
-0.00256552
-0.00250876
-0.00245339
-0.00239939
-0.00234673
-0.00229537
-0.0022453
-0.00219647
-0.00214886
-0.00210245
-0.00205721
-0.00201311
-0.00197012
-0.00192822
-0.00188738
-0.00184758
-0.0018088
-0.00177101
-0.00173418
-0.0016983
-0.00166335
-0.00162929
-0.00159612
-0.00156381
-0.00153233
-0.00150168
-0.00147183
-0.00144276
-0.00141446
-0.0013869
-0.00136007
-0.00133395
-0.00130853
-0.00128379
-0.00125972
-0.00123629
-0.0012135
-0.00119132
-0.00116975
-0.00114877
-0.00112838
-0.00110854
-0.00108926
-0.00107052
-0.00105231
-0.00103461
-0.00101742
-0.00100072
-0.000984509
-0.000968769
-0.000953492
-0.000938668
-0.000924288
-0.000910342
-0.000896822
-0.000883718
-0.000871023
-0.000858728
-0.000846825
-0.000835307
-0.000824166
-0.000813395
-0.000802987
-0.000792935
-0.000783233
-0.000773875
-0.000764855
-0.000756166
-0.000747803
-0.000739761
-0.000732034
-0.000724618
-0.000717508
-0.000710699
-0.000704187
-0.000697967
-0.000692036
-0.000686389
-0.000681024
-0.000675936
-0.000671123
-0.000666581
-0.000662307
-0.000658298
-0.000654553
-0.000651068
-0.000647841
-0.000644871
-0.000642155
-0.000639691
-0.000637478
-0.000635515
-0.000633799
-0.000632332
-0.000631109
-0.000630133
-0.0006294
-0.000628914
-0.000628669
0.0592971
0.0592672
0.0591847
0.0590674
0.0589064
0.0587066
0.0584684
0.0581917
0.0578793
0.0575302
0.0571479
0.0567317
0.0562848
0.0558072
0.0553019
0.0547694
0.0542125
0.0536321
0.0530307
0.0524097
0.0517711
0.0511168
0.0504486
0.0497683
0.049078
0.0483792
0.0476738
0.0469635
0.0462502
0.0455352
0.0448203
0.0441068
0.0433963
0.04269
0.0419893
0.0412952
0.040609
0.0399315
0.0392637
0.0386064
0.0379604
0.0373262
0.0367045
0.0360957
0.0355002
0.0349184
0.0343504
0.0337965
0.0332568
0.0327313
0.03222
0.0317228
0.0312397
0.0307704
0.0303147
0.0298725
0.0294435
0.0290273
0.0286237
0.0282323
0.0278528
0.0274848
0.027128
0.0267819
0.0264463
0.0261206
0.0258046
0.0254978
0.0251999
0.0249106
0.0246294
0.0243559
0.02409
0.0238312
0.0235791
0.0233336
0.0230942
0.0228606
0.0226327
0.02241
0.0221923
0.0219794
0.0217709
0.0215667
0.0213664
0.0211698
0.0209768
0.0207869
0.0206001
0.0204161
0.0202346
0.0200555
0.0198785
0.0197033
0.0195299
0.019358
0.0191873
0.0190177
0.0188489
0.0186808
0.0185131
0.0183456
0.0181782
0.0180106
0.0178426
0.017674
0.0175048
0.0173345
0.0171631
0.0169904
0.0168162
0.0166403
0.0164625
0.0162827
0.0161007
0.0159163
0.0157294
0.0155398
0.0153474
0.015152
0.0149535
0.0147518
0.0145467
0.0143382
0.014126
0.0139103
0.0136907
0.0134673
0.01324
0.0130088
0.0127735
0.0125341
0.0122906
0.012043
0.0117913
0.0115354
0.0112753
0.0110112
0.010743
0.0104707
0.0101944
0.00991412
0.00963
0.0093421
0.0090505
0.00875531
0.00845663
0.0081546
0.00784934
0.007541
0.00722973
0.0069157
0.00659906
0.00628001
0.00595873
0.00563541
0.00531026
0.00498349
0.00465531
0.00432596
0.00399565
0.00366462
0.00333311
0.00300136
0.00266963
0.00233815
0.00200718
0.00167698
0.0013478
0.0010199
0.000693525
0.000368941
4.63979e-05
-0.000273851
-0.000591558
-0.000906474
-0.00121836
-0.00152697
-0.00183208
-0.00213346
-0.00243089
-0.00272415
-0.00301304
-0.00329736
-0.00357692
-0.00385154
-0.00412104
-0.00438528
-0.00464409
-0.00489734
-0.00514491
-0.00538668
-0.00562255
-0.00585244
-0.00607626
-0.00629396
-0.00650549
-0.00671082
-0.00690993
-0.00710281
-0.00728948
-0.00746996
-0.00764429
-0.00781251
-0.00797471
-0.00813095
-0.00828134
-0.00842597
-0.00856498
-0.00869848
-0.00882662
-0.00894956
-0.00906746
-0.00918049
-0.00928883
-0.00939268
-0.00949224
-0.0095877
-0.00967928
-0.0097672
-0.00985167
-0.00993291
-0.0100112
-0.0100866
-0.0101595
-0.0102301
-0.0102986
-0.0103652
-0.0104301
-0.0104936
-0.0105558
-0.010617
-0.0106773
-0.0107369
-0.0107961
-0.010855
-0.0109136
-0.0109723
-0.0110312
-0.0110903
-0.0111497
-0.0112097
-0.0112702
-0.0113315
-0.0113934
-0.0114562
-0.0115198
-0.0115843
-0.0116496
-0.0117159
-0.0117831
-0.0118512
-0.0119201
-0.0119899
-0.0120604
-0.0121317
-0.0122036
-0.0122761
-0.0123491
-0.0124225
-0.0124961
-0.01257
-0.0126439
-0.0127177
-0.0127913
-0.0128646
-0.0129375
-0.0130097
-0.0130812
-0.0131518
-0.0132213
-0.0132897
-0.0133567
-0.0134222
-0.013486
-0.0135481
-0.0136083
-0.0136663
-0.0137222
-0.0137757
-0.0138267
-0.0138751
-0.0139207
-0.0139635
-0.0140033
-0.0140401
-0.0140736
-0.0141039
-0.0141308
-0.0141543
-0.0141742
-0.0141905
-0.0142031
-0.014212
-0.0142171
-0.0142184
-0.0142158
-0.0142093
-0.0141989
-0.0141845
-0.0141661
-0.0141437
-0.0141174
-0.0140871
-0.0140528
-0.0140145
-0.0139723
-0.0139261
-0.0138761
-0.0138221
-0.0137644
-0.0137028
-0.0136376
-0.0135686
-0.0134959
-0.0134197
-0.0133399
-0.0132567
-0.0131701
-0.0130801
-0.0129869
-0.0128904
-0.0127909
-0.0126883
-0.0125827
-0.0124743
-0.012363
-0.0122491
-0.0121325
-0.0120134
-0.0118919
-0.011768
-0.0116418
-0.0115135
-0.0113832
-0.0112508
-0.0111166
-0.0109807
-0.010843
-0.0107038
-0.0105631
-0.0104211
-0.0102778
-0.0101334
-0.00998789
-0.00984146
-0.0096942
-0.0095462
-0.00939759
-0.00924846
-0.00909893
-0.00894909
-0.00879906
-0.00864894
-0.00849884
-0.00834885
-0.00819909
-0.00804966
-0.00790066
-0.00775218
-0.00760433
-0.00745719
-0.00731087
-0.00716546
-0.00702104
-0.00687769
-0.00673551
-0.00659458
-0.00645496
-0.00631673
-0.00617996
-0.00604471
-0.00591106
-0.00577905
-0.00564875
-0.00552019
-0.00539343
-0.00526851
-0.00514546
-0.00502433
-0.00490514
-0.00478791
-0.00467267
-0.00455943
-0.00444821
-0.00433903
-0.00423188
-0.00412677
-0.00402371
-0.00392268
-0.00382369
-0.00372672
-0.00363176
-0.0035388
-0.00344782
-0.00335881
-0.00327175
-0.00318661
-0.00310337
-0.00302201
-0.00294249
-0.0028648
-0.00278891
-0.00271478
-0.00264238
-0.0025717
-0.00250268
-0.00243532
-0.00236956
-0.00230539
-0.00224277
-0.00218167
-0.00212206
-0.00206391
-0.00200718
-0.00195185
-0.00189788
-0.00184526
-0.00179394
-0.00174389
-0.0016951
-0.00164753
-0.00160115
-0.00155593
-0.00151186
-0.0014689
-0.00142703
-0.00138622
-0.00134645
-0.0013077
-0.00126993
-0.00123313
-0.00119728
-0.00116234
-0.00112831
-0.00109516
-0.00106287
-0.00103142
-0.00100079
-0.000970962
-0.000941914
-0.000913629
-0.000886091
-0.000859281
-0.000833184
-0.000807781
-0.000783058
-0.000758999
-0.000735588
-0.00071281
-0.000690651
-0.000669098
-0.000648135
-0.000627751
-0.000607931
-0.000588663
-0.000569935
-0.000551735
-0.000534052
-0.000516873
-0.000500188
-0.000483986
-0.000468257
-0.000452991
-0.000438178
-0.000423808
-0.000409872
-0.000396361
-0.000383267
-0.000370581
-0.000358295
-0.0003464
-0.00033489
-0.000323757
-0.000312994
-0.000302593
-0.000292549
-0.000282854
-0.000273503
-0.000264488
-0.000255806
-0.000247449
-0.000239412
-0.000231691
-0.000224281
-0.000217176
-0.000210371
-0.000203864
-0.000197648
-0.000191722
-0.000186079
-0.000180718
-0.000175634
-0.000170824
-0.000166285
-0.000162014
-0.000158008
-0.000154265
-0.000150783
-0.000147559
-0.00014459
-0.000141876
-0.000139414
-0.000137203
-0.000135241
-0.000133527
-0.00013206
-0.000130839
-0.000129863
-0.000129132
-0.000128645
-0.000128401
0.0589018
0.0588562
0.0587739
0.0586495
0.0584865
0.0582837
0.058043
0.057764
0.0574488
0.0570972
0.0567117
0.0562924
0.0558419
0.0553608
0.0548515
0.0543151
0.0537539
0.0531693
0.0525634
0.0519379
0.0512947
0.0506358
0.049963
0.0492782
0.0485833
0.04788
0.0471703
0.0464558
0.0457383
0.0450193
0.0443005
0.0435834
0.0428694
0.0421599
0.0414561
0.0407592
0.0400703
0.0393903
0.0387203
0.0380611
0.0374133
0.0367776
0.0361545
0.0355446
0.0349483
0.0343657
0.0337973
0.0332431
0.0327033
0.0321778
0.0316667
0.0311699
0.0306872