/*--------------------------------*- C++ -*----------------------------------*\
| =========                 |                                                 |
| \\      /  F ield         | OpenFOAM: The Open Source CFD Toolbox           |
|  \\    /   O peration     | Version:  v2012                                 |
|   \\  /    A nd           | Website:  www.openfoam.com                      |
|    \\/     M anipulation  |                                                 |
\*---------------------------------------------------------------------------*/
FoamFile
{
    version     2.0;
    format      ascii;
    class       volVectorField;
    location    "50";
    object      U_filtered;
}
// * * * * * * * * * * * * * * * * * * * * * * * * * * * * * * * * * * * * * //

dimensions      [0 1 -1 0 0 0 0];


internalField   nonuniform List<vector> 
65536
(
(0.0583394 -0.0590406 0)
(0.175467 -0.0587383 0)
(0.292541 -0.0585523 0)
(0.408984 -0.0582337 0)
(0.524846 -0.0578679 0)
(0.639855 -0.0574051 0)
(0.753888 -0.056866 0)
(0.866754 -0.0562371 0)
(0.978296 -0.0555293 0)
(1.08834 -0.0547362 0)
(1.19674 -0.0538669 0)
(1.30332 -0.0529175 0)
(1.40795 -0.0518963 0)
(1.51046 -0.0508011 0)
(1.61074 -0.0496391 0)
(1.70863 -0.04841 0)
(1.80402 -0.0471202 0)
(1.89678 -0.0457706 0)
(1.9868 -0.044367 0)
(2.07397 -0.0429113 0)
(2.1582 -0.041409 0)
(2.23939 -0.0398627 0)
(2.31746 -0.0382775 0)
(2.39234 -0.0366566 0)
(2.46397 -0.0350049 0)
(2.53227 -0.0333259 0)
(2.59721 -0.0316242 0)
(2.65874 -0.0299036 0)
(2.71682 -0.0281687 0)
(2.77144 -0.0264231 0)
(2.82258 -0.0246712 0)
(2.87022 -0.0229169 0)
(2.91436 -0.0211641 0)
(2.95502 -0.0194166 0)
(2.9922 -0.0176784 0)
(3.02593 -0.0159527 0)
(3.05624 -0.0142434 0)
(3.08316 -0.0125536 0)
(3.10673 -0.0108867 0)
(3.12701 -0.00924568 0)
(3.14404 -0.00763365 0)
(3.15789 -0.00605314 0)
(3.16862 -0.00450698 0)
(3.1763 -0.00299739 0)
(3.18102 -0.00152681 0)
(3.18283 -9.71281e-05 0)
(3.18185 0.00128961 0)
(3.17813 0.00263186 0)
(3.17179 0.00392798 0)
(3.16291 0.00517678 0)
(3.15159 0.00637699 0)
(3.13792 0.0075278 0)
(3.122 0.00862832 0)
(3.10394 0.00967807 0)
(3.08384 0.0106765 0)
(3.06179 0.0116236 0)
(3.03791 0.012519 0)
(3.01229 0.013363 0)
(2.98504 0.0141557 0)
(2.95626 0.0148976 0)
(2.92605 0.0155891 0)
(2.89451 0.016231 0)
(2.86174 0.0168239 0)
(2.82783 0.0173688 0)
(2.79288 0.0178667 0)
(2.75699 0.0183186 0)
(2.72024 0.0187257 0)
(2.68272 0.0190893 0)
(2.64451 0.0194107 0)
(2.60571 0.0196913 0)
(2.56638 0.0199325 0)
(2.52661 0.0201358 0)
(2.48648 0.0203027 0)
(2.44604 0.0204347 0)
(2.40537 0.0205335 0)
(2.36454 0.0206005 0)
(2.3236 0.0206373 0)
(2.28262 0.0206456 0)
(2.24165 0.0206268 0)
(2.20074 0.0205826 0)
(2.15994 0.0205144 0)
(2.11929 0.0204237 0)
(2.07885 0.020312 0)
(2.03865 0.0201808 0)
(1.99872 0.0200315 0)
(1.95911 0.0198653 0)
(1.91984 0.0196837 0)
(1.88094 0.0194878 0)
(1.84245 0.019279 0)
(1.80438 0.0190584 0)
(1.76675 0.0188271 0)
(1.72959 0.0185862 0)
(1.69292 0.0183367 0)
(1.65675 0.0180797 0)
(1.62109 0.017816 0)
(1.58595 0.0175466 0)
(1.55135 0.0172722 0)
(1.51729 0.0169936 0)
(1.48379 0.0167116 0)
(1.45084 0.0164269 0)
(1.41846 0.0161401 0)
(1.38663 0.0158519 0)
(1.35538 0.0155627 0)
(1.32469 0.0152731 0)
(1.29457 0.0149837 0)
(1.26501 0.0146948 0)
(1.23602 0.0144068 0)
(1.20758 0.0141202 0)
(1.17971 0.0138353 0)
(1.15239 0.0135524 0)
(1.12561 0.0132718 0)
(1.09938 0.0129938 0)
(1.07369 0.0127186 0)
(1.04852 0.0124464 0)
(1.02388 0.0121774 0)
(0.999761 0.0119118 0)
(0.976148 0.0116497 0)
(0.953037 0.0113913 0)
(0.930421 0.0111367 0)
(0.908291 0.010886 0)
(0.88664 0.0106392 0)
(0.865458 0.0103964 0)
(0.844738 0.0101578 0)
(0.824471 0.00992328 0)
(0.804648 0.00969295 0)
(0.785262 0.00946682 0)
(0.766302 0.0092449 0)
(0.747762 0.00902721 0)
(0.729632 0.00881374 0)
(0.711904 0.0086045 0)
(0.694569 0.00839946 0)
(0.677618 0.0081986 0)
(0.661045 0.0080019 0)
(0.644839 0.00780934 0)
(0.628994 0.00762087 0)
(0.613502 0.00743647 0)
(0.598353 0.00725608 0)
(0.583541 0.00707967 0)
(0.569057 0.00690719 0)
(0.554895 0.00673858 0)
(0.541047 0.00657381 0)
(0.527506 0.00641281 0)
(0.514264 0.00625553 0)
(0.501314 0.00610191 0)
(0.48865 0.0059519 0)
(0.476265 0.00580544 0)
(0.464153 0.00566247 0)
(0.452307 0.00552293 0)
(0.44072 0.00538676 0)
(0.429388 0.00525389 0)
(0.418303 0.00512428 0)
(0.407461 0.00499785 0)
(0.396855 0.00487454 0)
(0.38648 0.00475431 0)
(0.376331 0.00463707 0)
(0.366402 0.00452278 0)
(0.356689 0.00441138 0)
(0.347186 0.0043028 0)
(0.337889 0.00419698 0)
(0.328794 0.00409387 0)
(0.319895 0.00399341 0)
(0.311189 0.00389553 0)
(0.30267 0.00380019 0)
(0.294336 0.00370732 0)
(0.286182 0.00361687 0)
(0.278204 0.00352879 0)
(0.270399 0.00344301 0)
(0.262762 0.00335948 0)
(0.255291 0.00327816 0)
(0.247982 0.00319898 0)
(0.240832 0.00312189 0)
(0.233836 0.00304685 0)
(0.226993 0.00297381 0)
(0.2203 0.0029027 0)
(0.213752 0.00283349 0)
(0.207348 0.00276612 0)
(0.201085 0.00270055 0)
(0.19496 0.00263673 0)
(0.18897 0.00257461 0)
(0.183113 0.00251415 0)
(0.177386 0.00245531 0)
(0.171787 0.00239803 0)
(0.166314 0.00234228 0)
(0.160964 0.00228802 0)
(0.155735 0.0022352 0)
(0.150624 0.00218378 0)
(0.14563 0.00213372 0)
(0.140751 0.00208499 0)
(0.135984 0.00203754 0)
(0.131328 0.00199134 0)
(0.12678 0.00194634 0)
(0.122338 0.00190253 0)
(0.118001 0.00185985 0)
(0.113766 0.00181827 0)
(0.109632 0.00177777 0)
(0.105597 0.00173831 0)
(0.101658 0.00169985 0)
(0.0978147 0.00166237 0)
(0.0940646 0.00162583 0)
(0.0904058 0.00159021 0)
(0.0868367 0.00155547 0)
(0.0833554 0.0015216 0)
(0.0799601 0.00148855 0)
(0.0766491 0.0014563 0)
(0.0734206 0.00142483 0)
(0.0702728 0.00139412 0)
(0.0672039 0.00136413 0)
(0.0642122 0.00133484 0)
(0.061296 0.00130624 0)
(0.0584536 0.00127829 0)
(0.055683 0.00125098 0)
(0.0529827 0.00122428 0)
(0.050351 0.00119818 0)
(0.047786 0.00117265 0)
(0.0452861 0.00114768 0)
(0.0428496 0.00112324 0)
(0.0404747 0.00109932 0)
(0.0381599 0.00107591 0)
(0.0359035 0.00105297 0)
(0.0337037 0.00103051 0)
(0.031559 0.00100849 0)
(0.0294677 0.000986913 0)
(0.0274282 0.000965757 0)
(0.0254391 0.000945009 0)
(0.0234987 0.000924655 0)
(0.0216054 0.000904683 0)
(0.0197579 0.000885079 0)
(0.0179546 0.000865832 0)
(0.0161941 0.000846929 0)
(0.014475 0.000828361 0)
(0.0127959 0.000810115 0)
(0.0111555 0.000792182 0)
(0.00955246 0.000774552 0)
(0.00798556 0.000757216 0)
(0.00645358 0.000740164 0)
(0.00495534 0.000723388 0)
(0.0034897 0.00070688 0)
(0.00205558 0.000690632 0)
(0.000651935 0.000674636 0)
(-0.000722228 0.000658885 0)
(-0.00206786 0.000643374 0)
(-0.00338587 0.000628094 0)
(-0.0046771 0.000613042 0)
(-0.00594236 0.000598209 0)
(-0.00718242 0.000583593 0)
(-0.00839799 0.000569186 0)
(-0.00958972 0.000554986 0)
(-0.0107582 0.000540986 0)
(-0.0119041 0.000527184 0)
(-0.0130279 0.000513574 0)
(-0.01413 0.000500155 0)
(-0.0152109 0.000486921 0)
(-0.016271 0.000473871 0)
(-0.0173106 0.000461002 0)
(-0.0183301 0.00044831 0)
(-0.0193297 0.000435794 0)
(-0.0203097 0.000423451 0)
(-0.0212702 0.000411279 0)
(-0.0222114 0.000399277 0)
(-0.0231334 0.000387442 0)
(-0.0240364 0.000375774 0)
(-0.0249204 0.000364272 0)
(-0.0257854 0.000352933 0)
(-0.0266315 0.000341758 0)
(-0.0274587 0.000330744 0)
(-0.0282669 0.000319893 0)
(-0.0290561 0.000309202 0)
(-0.0298262 0.000298671 0)
(-0.0305773 0.0002883 0)
(-0.031309 0.000278088 0)
(-0.0320215 0.000268036 0)
(-0.0327145 0.000258142 0)
(-0.033388 0.000248407 0)
(-0.0340419 0.000238831 0)
(-0.0346759 0.000229413 0)
(-0.0352901 0.000220153 0)
(-0.0358842 0.000211051 0)
(-0.0364582 0.000202107 0)
(-0.037012 0.000193322 0)
(-0.0375454 0.000184694 0)
(-0.0380583 0.000176224 0)
(-0.0385507 0.000167911 0)
(-0.0390225 0.000159757 0)
(-0.0394735 0.000151759 0)
(-0.0399038 0.00014392 0)
(-0.0403133 0.000136237 0)
(-0.0407018 0.000128711 0)
(-0.0410695 0.000121341 0)
(-0.0414163 0.000114128 0)
(-0.0417422 0.000107071 0)
(-0.0420472 0.00010017 0)
(-0.0423313 9.3423e-05 0)
(-0.0425947 8.6831e-05 0)
(-0.0428373 8.0393e-05 0)
(-0.0430593 7.41084e-05 0)
(-0.0432607 6.79765e-05 0)
(-0.0434416 6.19967e-05 0)
(-0.0436022 5.61681e-05 0)
(-0.0437427 5.04901e-05 0)
(-0.0438631 4.49616e-05 0)
(-0.0439636 3.95817e-05 0)
(-0.0440445 3.43496e-05 0)
(-0.0441059 2.92641e-05 0)
(-0.0441481 2.43243e-05 0)
(-0.0441712 1.95289e-05 0)
(-0.0441756 1.48769e-05 0)
(-0.0441614 1.03669e-05 0)
(-0.0441289 5.9978e-06 0)
(-0.0440784 1.76824e-06 0)
(-0.0440102 -2.3231e-06 0)
(-0.0439246 -6.2776e-06 0)
(-0.0438219 -1.00967e-05 0)
(-0.0437023 -1.37818e-05 0)
(-0.0435663 -1.73344e-05 0)
(-0.0434142 -2.07561e-05 0)
(-0.0432462 -2.40483e-05 0)
(-0.0430628 -2.72126e-05 0)
(-0.0428642 -3.02507e-05 0)
(-0.0426509 -3.31642e-05 0)
(-0.0424233 -3.59547e-05 0)
(-0.0421816 -3.86239e-05 0)
(-0.0419262 -4.11734e-05 0)
(-0.0416576 -4.36051e-05 0)
(-0.0413761 -4.59205e-05 0)
(-0.0410821 -4.81216e-05 0)
(-0.040776 -5.021e-05 0)
(-0.0404582 -5.21875e-05 0)
(-0.0401291 -5.40559e-05 0)
(-0.039789 -5.5817e-05 0)
(-0.0394384 -5.74727e-05 0)
(-0.0390777 -5.90248e-05 0)
(-0.0387073 -6.04751e-05 0)
(-0.0383275 -6.18256e-05 0)
(-0.0379389 -6.3078e-05 0)
(-0.0375417 -6.42343e-05 0)
(-0.0371365 -6.52964e-05 0)
(-0.0367235 -6.62662e-05 0)
(-0.0363033 -6.71457e-05 0)
(-0.0358762 -6.79368e-05 0)
(-0.0354427 -6.86415e-05 0)
(-0.035003 -6.92618e-05 0)
(-0.0345578 -6.97996e-05 0)
(-0.0341073 -7.02571e-05 0)
(-0.0336519 -7.06362e-05 0)
(-0.0331921 -7.09391e-05 0)
(-0.0327283 -7.11678e-05 0)
(-0.0322608 -7.13244e-05 0)
(-0.0317902 -7.14111e-05 0)
(-0.0313167 -7.143e-05 0)
(-0.0308407 -7.13833e-05 0)
(-0.0303628 -7.12732e-05 0)
(-0.0298831 -7.11019e-05 0)
(-0.0294022 -7.08716e-05 0)
(-0.0289205 -7.05847e-05 0)
(-0.0284382 -7.02434e-05 0)
(-0.0279558 -6.98499e-05 0)
(-0.0274736 -6.94067e-05 0)
(-0.026992 -6.8916e-05 0)
(-0.0265114 -6.83801e-05 0)
(-0.0260321 -6.78014e-05 0)
(-0.0255545 -6.71822e-05 0)
(-0.0250788 -6.65249e-05 0)
(-0.0246055 -6.58318e-05 0)
(-0.0241347 -6.51052e-05 0)
(-0.0236669 -6.43475e-05 0)
(-0.0232023 -6.35608e-05 0)
(-0.0227413 -6.27475e-05 0)
(-0.022284 -6.19098e-05 0)
(-0.0218307 -6.10499e-05 0)
(-0.0213818 -6.01701e-05 0)
(-0.0209374 -5.92723e-05 0)
(-0.0204977 -5.83587e-05 0)
(-0.020063 -5.74314e-05 0)
(-0.0196335 -5.64922e-05 0)
(-0.0192094 -5.55432e-05 0)
(-0.0187908 -5.45862e-05 0)
(-0.0183778 -5.36229e-05 0)
(-0.0179707 -5.26551e-05 0)
(-0.0175696 -5.16844e-05 0)
(-0.0171745 -5.07125e-05 0)
(-0.0167856 -4.97408e-05 0)
(-0.016403 -4.87708e-05 0)
(-0.0160267 -4.78037e-05 0)
(-0.0156568 -4.68409e-05 0)
(-0.0152934 -4.58836e-05 0)
(-0.0149365 -4.49329e-05 0)
(-0.0145862 -4.39898e-05 0)
(-0.0142424 -4.30553e-05 0)
(-0.0139051 -4.21302e-05 0)
(-0.0135744 -4.12154e-05 0)
(-0.0132502 -4.03115e-05 0)
(-0.0129325 -3.94193e-05 0)
(-0.0126213 -3.85394e-05 0)
(-0.0123166 -3.76722e-05 0)
(-0.0120182 -3.68182e-05 0)
(-0.0117261 -3.59778e-05 0)
(-0.0114404 -3.51513e-05 0)
(-0.0111608 -3.43391e-05 0)
(-0.0108873 -3.35413e-05 0)
(-0.0106199 -3.27582e-05 0)
(-0.0103585 -3.19898e-05 0)
(-0.010103 -3.12363e-05 0)
(-0.00985321 -3.04977e-05 0)
(-0.00960914 -2.9774e-05 0)
(-0.00937068 -2.90652e-05 0)
(-0.00913772 -2.83713e-05 0)
(-0.00891016 -2.76922e-05 0)
(-0.00868791 -2.70277e-05 0)
(-0.00847086 -2.63778e-05 0)
(-0.00825892 -2.57424e-05 0)
(-0.00805197 -2.51211e-05 0)
(-0.00784992 -2.4514e-05 0)
(-0.00765266 -2.39208e-05 0)
(-0.00746009 -2.33413e-05 0)
(-0.00727212 -2.27752e-05 0)
(-0.00708864 -2.22225e-05 0)
(-0.00690954 -2.16828e-05 0)
(-0.00673474 -2.1156e-05 0)
(-0.00656414 -2.06417e-05 0)
(-0.00639763 -2.01399e-05 0)
(-0.00623513 -1.96502e-05 0)
(-0.00607654 -1.91724e-05 0)
(-0.00592177 -1.87062e-05 0)
(-0.00577072 -1.82515e-05 0)
(-0.00562332 -1.7808e-05 0)
(-0.00547946 -1.73755e-05 0)
(-0.00533908 -1.69537e-05 0)
(-0.00520207 -1.65425e-05 0)
(-0.00506836 -1.61415e-05 0)
(-0.00493787 -1.57506e-05 0)
(-0.00481052 -1.53695e-05 0)
(-0.00468623 -1.49981e-05 0)
(-0.00456493 -1.46361e-05 0)
(-0.00444653 -1.42833e-05 0)
(-0.00433097 -1.39395e-05 0)
(-0.00421818 -1.36045e-05 0)
(-0.00410808 -1.32782e-05 0)
(-0.00400061 -1.29602e-05 0)
(-0.00389569 -1.26505e-05 0)
(-0.00379327 -1.23488e-05 0)
(-0.00369329 -1.2055e-05 0)
(-0.00359566 -1.17689e-05 0)
(-0.00350035 -1.14903e-05 0)
(-0.00340728 -1.1219e-05 0)
(-0.00331639 -1.09548e-05 0)
(-0.00322764 -1.06977e-05 0)
(-0.00314096 -1.04475e-05 0)
(-0.00305629 -1.02039e-05 0)
(-0.0029736 -9.96689e-06 0)
(-0.00289281 -9.73627e-06 0)
(-0.00281388 -9.51191e-06 0)
(-0.00273677 -9.29365e-06 0)
(-0.00266141 -9.08137e-06 0)
(-0.00258777 -8.87494e-06 0)
(-0.00251579 -8.67421e-06 0)
(-0.00244544 -8.47907e-06 0)
(-0.00237665 -8.2894e-06 0)
(-0.0023094 -8.10506e-06 0)
(-0.00224364 -7.92595e-06 0)
(-0.00217932 -7.75195e-06 0)
(-0.00211641 -7.58295e-06 0)
(-0.00205486 -7.41885e-06 0)
(-0.00199464 -7.25953e-06 0)
(-0.0019357 -7.10489e-06 0)
(-0.00187801 -6.95485e-06 0)
(-0.00182153 -6.80929e-06 0)
(-0.00176622 -6.66813e-06 0)
(-0.00171205 -6.53128e-06 0)
(-0.00165899 -6.39865e-06 0)
(-0.001607 -6.27015e-06 0)
(-0.00155604 -6.1457e-06 0)
(-0.00150609 -6.02522e-06 0)
(-0.00145711 -5.90864e-06 0)
(-0.00140907 -5.79587e-06 0)
(-0.00136193 -5.68685e-06 0)
(-0.00131568 -5.58151e-06 0)
(-0.00127027 -5.47977e-06 0)
(-0.00122569 -5.38157e-06 0)
(-0.00118189 -5.28684e-06 0)
(-0.00113886 -5.19554e-06 0)
(-0.00109656 -5.10759e-06 0)
(-0.00105497 -5.02294e-06 0)
(-0.00101406 -4.94154e-06 0)
(-0.000973801 -4.86333e-06 0)
(-0.000934173 -4.78826e-06 0)
(-0.000895147 -4.71628e-06 0)
(-0.000856699 -4.64735e-06 0)
(-0.000818803 -4.58142e-06 0)
(-0.000781436 -4.51845e-06 0)
(-0.000744572 -4.4584e-06 0)
(-0.00070819 -4.40122e-06 0)
(-0.000672263 -4.34689e-06 0)
(-0.000636771 -4.29536e-06 0)
(-0.000601688 -4.24661e-06 0)
(-0.000566995 -4.2006e-06 0)
(-0.000532667 -4.1573e-06 0)
(-0.000498683 -4.11668e-06 0)
(-0.000465019 -4.07873e-06 0)
(-0.000431658 -4.04338e-06 0)
(-0.000398572 -4.0107e-06 0)
(-0.000365747 -3.98053e-06 0)
(-0.000333154 -3.95305e-06 0)
(-0.000300781 -3.92797e-06 0)
(-0.000268595 -3.90572e-06 0)
(-0.000236592 -3.88561e-06 0)
(-0.00020473 -3.86885e-06 0)
(-0.000173015 -3.85345e-06 0)
(-0.000141397 -3.84338e-06 0)
(-0.000109887 -3.83184e-06 0)
(-7.84375e-05 -3.83409e-06 0)
(-4.70436e-05 -3.8243e-06 0)
(-1.57095e-05 -3.87256e-06 0)
(0.0585577 -0.176953 0)
(0.175723 -0.176474 0)
(0.292647 -0.175925 0)
(0.409105 -0.175054 0)
(0.52495 -0.173957 0)
(0.639971 -0.172585 0)
(0.754012 -0.170962 0)
(0.86689 -0.169078 0)
(0.97844 -0.166947 0)
(1.08849 -0.164566 0)
(1.1969 -0.161949 0)
(1.30348 -0.159096 0)
(1.40811 -0.156024 0)
(1.51062 -0.152731 0)
(1.61089 -0.149235 0)
(1.70877 -0.145539 0)
(1.80414 -0.141659 0)
(1.89688 -0.1376 0)
(1.98688 -0.133378 0)
(2.07403 -0.129 0)
(2.15822 -0.124481 0)
(2.23938 -0.11983 0)
(2.31742 -0.115061 0)
(2.39226 -0.110186 0)
(2.46383 -0.105218 0)
(2.53209 -0.100168 0)
(2.59697 -0.0950492 0)
(2.65844 -0.0898744 0)
(2.71647 -0.084656 0)
(2.77102 -0.0794061 0)
(2.82209 -0.0741372 0)
(2.86966 -0.068861 0)
(2.91373 -0.0635898 0)
(2.95431 -0.0583345 0)
(2.99142 -0.0531069 0)
(3.02507 -0.0479175 0)
(3.05529 -0.0427774 0)
(3.08213 -0.037696 0)
(3.10561 -0.0326838 0)
(3.1258 -0.0277495 0)
(3.14274 -0.0229024 0)
(3.1565 -0.0181503 0)
(3.16714 -0.0135016 0)
(3.17474 -0.00896299 0)
(3.17936 -0.00454183 0)
(3.18109 -0.000243777 0)
(3.18001 0.00392502 0)
(3.17621 0.00795994 0)
(3.16978 0.011856 0)
(3.16081 0.0156097 0)
(3.14941 0.0192172 0)
(3.13565 0.022676 0)
(3.11966 0.0259835 0)
(3.10152 0.0291383 0)
(3.08134 0.0321388 0)
(3.05923 0.0349846 0)
(3.03527 0.0376751 0)
(3.00959 0.040211 0)
(2.98228 0.0425926 0)
(2.95344 0.0448214 0)
(2.92317 0.0468986 0)
(2.89158 0.0488265 0)
(2.85875 0.0506073 0)
(2.8248 0.0522437 0)
(2.78981 0.0537385 0)
(2.75388 0.0550953 0)
(2.71709 0.0563174 0)
(2.67954 0.0574086 0)
(2.64131 0.058373 0)
(2.60248 0.0592147 0)
(2.56314 0.059938 0)
(2.52335 0.0605474 0)
(2.4832 0.0610473 0)
(2.44276 0.0614426 0)
(2.40209 0.0617377 0)
(2.36125 0.0619376 0)
(2.32032 0.0620468 0)
(2.27934 0.0620701 0)
(2.23837 0.0620122 0)
(2.19747 0.0618777 0)
(2.15669 0.0616713 0)
(2.11606 0.0613974 0)
(2.07564 0.0610605 0)
(2.03546 0.0606649 0)
(1.99556 0.0602148 0)
(1.95597 0.0597142 0)
(1.91673 0.0591672 0)
(1.87786 0.0585776 0)
(1.8394 0.057949 0)
(1.80136 0.057285 0)
(1.76378 0.0565889 0)
(1.72665 0.0558641 0)
(1.69002 0.0551136 0)
(1.65388 0.0543404 0)
(1.61826 0.0535472 0)
(1.58317 0.0527367 0)
(1.54861 0.0519115 0)
(1.5146 0.0510738 0)
(1.48114 0.0502258 0)
(1.44823 0.0493697 0)
(1.41589 0.0485074 0)
(1.38411 0.0476407 0)
(1.3529 0.0467713 0)
(1.32226 0.0459008 0)
(1.29218 0.0450306 0)
(1.26267 0.0441622 0)
(1.23372 0.0432966 0)
(1.20533 0.0424351 0)
(1.1775 0.0415788 0)
(1.15022 0.0407285 0)
(1.12349 0.0398851 0)
(1.0973 0.0390495 0)
(1.07165 0.0382224 0)
(1.04653 0.0374043 0)
(1.02193 0.0365959 0)
(0.99785 0.0357977 0)
(0.974279 0.0350101 0)
(0.951209 0.0342336 0)
(0.928633 0.0334684 0)
(0.906543 0.0327149 0)
(0.88493 0.0319733 0)
(0.863787 0.0312439 0)
(0.843105 0.0305268 0)
(0.822875 0.0298221 0)
(0.803089 0.02913 0)
(0.783738 0.0284505 0)
(0.764814 0.0277837 0)
(0.746308 0.0271296 0)
(0.728212 0.0264882 0)
(0.710517 0.0258595 0)
(0.693215 0.0252434 0)
(0.676297 0.0246399 0)
(0.659755 0.0240489 0)
(0.643581 0.0234703 0)
(0.627766 0.0229041 0)
(0.612302 0.02235 0)
(0.597183 0.021808 0)
(0.582399 0.021278 0)
(0.567944 0.0207597 0)
(0.553809 0.0202531 0)
(0.539987 0.0197581 0)
(0.526472 0.0192743 0)
(0.513255 0.0188018 0)
(0.500331 0.0183402 0)
(0.487691 0.0178895 0)
(0.47533 0.0174494 0)
(0.463241 0.0170198 0)
(0.451417 0.0166006 0)
(0.439853 0.0161914 0)
(0.428542 0.0157922 0)
(0.417479 0.0154027 0)
(0.406657 0.0150228 0)
(0.396071 0.0146523 0)
(0.385716 0.014291 0)
(0.375586 0.0139387 0)
(0.365676 0.0135953 0)
(0.355982 0.0132605 0)
(0.346497 0.0129342 0)
(0.337218 0.0126163 0)
(0.328139 0.0123064 0)
(0.319257 0.0120045 0)
(0.310567 0.0117104 0)
(0.302065 0.0114238 0)
(0.293746 0.0111447 0)
(0.285607 0.0108729 0)
(0.277644 0.0106081 0)
(0.269853 0.0103503 0)
(0.262231 0.0100993 0)
(0.254773 0.00985484 0)
(0.247477 0.00961685 0)
(0.24034 0.00938515 0)
(0.233357 0.00915959 0)
(0.226526 0.00894001 0)
(0.219845 0.00872627 0)
(0.213309 0.00851821 0)
(0.206916 0.00831569 0)
(0.200664 0.00811857 0)
(0.19455 0.0079267 0)
(0.188571 0.00773996 0)
(0.182724 0.00755819 0)
(0.177007 0.00738127 0)
(0.171418 0.00720907 0)
(0.165954 0.00704145 0)
(0.160613 0.0068783 0)
(0.155393 0.00671947 0)
(0.150291 0.00656486 0)
(0.145306 0.00641435 0)
(0.140435 0.00626781 0)
(0.135676 0.00612513 0)
(0.131028 0.0059862 0)
(0.126487 0.00585091 0)
(0.122053 0.00571914 0)
(0.117723 0.00559081 0)
(0.113495 0.00546579 0)
(0.109368 0.005344 0)
(0.105339 0.00522532 0)
(0.101407 0.00510968 0)
(0.0975703 0.00499697 0)
(0.0938262 0.00488709 0)
(0.0901735 0.00477997 0)
(0.0866102 0.00467552 0)
(0.0831345 0.00457365 0)
(0.0797447 0.00447427 0)
(0.076439 0.00437731 0)
(0.0732157 0.00428269 0)
(0.0700729 0.00419033 0)
(0.067009 0.00410017 0)
(0.0640221 0.00401212 0)
(0.0611106 0.00392611 0)
(0.0582726 0.00384209 0)
(0.0555065 0.00375999 0)
(0.0528104 0.00367973 0)
(0.0501828 0.00360126 0)
(0.0476219 0.00352452 0)
(0.0451259 0.00344946 0)
(0.0426932 0.003376 0)
(0.0403221 0.00330411 0)
(0.0380109 0.00323373 0)
(0.0357579 0.0031648 0)
(0.0335616 0.00309729 0)
(0.0314202 0.00303113 0)
(0.0293322 0.00296629 0)
(0.0272959 0.00290272 0)
(0.0253098 0.00284038 0)
(0.0233723 0.00277922 0)
(0.021482 0.00271922 0)
(0.0196373 0.00266032 0)
(0.0178368 0.0026025 0)
(0.0160789 0.00254571 0)
(0.0143624 0.00248993 0)
(0.0126859 0.00243513 0)
(0.0110479 0.00238126 0)
(0.00944732 0.0023283 0)
(0.00788277 0.00227623 0)
(0.00635307 0.00222501 0)
(0.00485706 0.00217462 0)
(0.00339359 0.00212504 0)
(0.00196158 0.00207623 0)
(0.000559997 0.00202819 0)
(-0.000812158 0.00198088 0)
(-0.00215583 0.00193429 0)
(-0.00347193 0.00188839 0)
(-0.0047613 0.00184318 0)
(-0.00602475 0.00179863 0)
(-0.00726303 0.00175472 0)
(-0.00847687 0.00171144 0)
(-0.00966691 0.00166878 0)
(-0.0108338 0.00162672 0)
(-0.0119781 0.00158525 0)
(-0.0131002 0.00154436 0)
(-0.0142008 0.00150404 0)
(-0.0152802 0.00146428 0)
(-0.0163389 0.00142506 0)
(-0.0173771 0.00138638 0)
(-0.0183952 0.00134824 0)
(-0.0193934 0.00131062 0)
(-0.020372 0.00127351 0)
(-0.0213312 0.00123692 0)
(-0.0222711 0.00120084 0)
(-0.0231919 0.00116525 0)
(-0.0240936 0.00113017 0)
(-0.0249764 0.00109558 0)
(-0.0258403 0.00106147 0)
(-0.0266852 0.00102786 0)
(-0.0275113 0.00099473 0)
(-0.0283184 0.000962082 0)
(-0.0291065 0.000929916 0)
(-0.0298756 0.000898228 0)
(-0.0306256 0.000867018 0)
(-0.0313563 0.000836285 0)
(-0.0320678 0.000806028 0)
(-0.0327598 0.000776245 0)
(-0.0334323 0.000746938 0)
(-0.0340852 0.000718104 0)
(-0.0347184 0.000689744 0)
(-0.0353316 0.000661858 0)
(-0.0359249 0.000634446 0)
(-0.036498 0.000607506 0)
(-0.0370509 0.00058104 0)
(-0.0375834 0.000555048 0)
(-0.0380956 0.000529528 0)
(-0.0385871 0.000504481 0)
(-0.0390581 0.000479907 0)
(-0.0395083 0.000455806 0)
(-0.0399378 0.000432176 0)
(-0.0403465 0.000409018 0)
(-0.0407343 0.00038633 0)
(-0.0411013 0.000364113 0)
(-0.0414474 0.000342366 0)
(-0.0417725 0.000321086 0)
(-0.0420768 0.000300274 0)
(-0.0423603 0.000279928 0)
(-0.042623 0.000260047 0)
(-0.0428649 0.000240629 0)
(-0.0430862 0.000221672 0)
(-0.043287 0.000203175 0)
(-0.0434673 0.000185135 0)
(-0.0436273 0.00016755 0)
(-0.0437671 0.000150419 0)
(-0.0438869 0.000133737 0)
(-0.0439869 0.000117503 0)
(-0.0440672 0.000101714 0)
(-0.0441281 8.63671e-05 0)
(-0.0441697 7.14586e-05 0)
(-0.0441922 5.69854e-05 0)
(-0.044196 4.2944e-05 0)
(-0.0441813 2.9331e-05 0)
(-0.0441483 1.61426e-05 0)
(-0.0440973 3.37495e-06 0)
(-0.0440286 -8.97596e-06 0)
(-0.0439425 -2.09142e-05 0)
(-0.0438393 -3.2444e-05 0)
(-0.0437193 -4.35696e-05 0)
(-0.0435828 -5.42956e-05 0)
(-0.0434302 -6.46263e-05 0)
(-0.0432618 -7.45664e-05 0)
(-0.0430779 -8.41207e-05 0)
(-0.042879 -9.32938e-05 0)
(-0.0426652 -0.000102091 0)
(-0.0424371 -0.000110516 0)
(-0.042195 -0.000118576 0)
(-0.0419393 -0.000126274 0)
(-0.0416703 -0.000133615 0)
(-0.0413884 -0.000140606 0)
(-0.041094 -0.000147252 0)
(-0.0407876 -0.000153556 0)
(-0.0404694 -0.000159526 0)
(-0.0401399 -0.000165166 0)
(-0.0397995 -0.000170482 0)
(-0.0394485 -0.000175479 0)
(-0.0390875 -0.000180163 0)
(-0.0387167 -0.000184539 0)
(-0.0383367 -0.000188613 0)
(-0.0379477 -0.000192391 0)
(-0.0375502 -0.000195877 0)
(-0.0371447 -0.000199079 0)
(-0.0367315 -0.000202002 0)
(-0.0363109 -0.000204651 0)
(-0.0358836 -0.000207033 0)
(-0.0354497 -0.000209153 0)
(-0.0350098 -0.000211018 0)
(-0.0345643 -0.000212633 0)
(-0.0341135 -0.000214004 0)
(-0.0336579 -0.000215139 0)
(-0.0331979 -0.000216042 0)
(-0.0327338 -0.000216721 0)
(-0.0322661 -0.000217181 0)
(-0.0317952 -0.00021743 0)
(-0.0313215 -0.000217473 0)
(-0.0308454 -0.000217317 0)
(-0.0303672 -0.00021697 0)
(-0.0298873 -0.000216436 0)
(-0.0294062 -0.000215724 0)
(-0.0289243 -0.00021484 0)
(-0.0284418 -0.000213792 0)
(-0.0279592 -0.000212585 0)
(-0.0274769 -0.000211227 0)
(-0.0269951 -0.000209725 0)
(-0.0265144 -0.000208087 0)
(-0.0260349 -0.000206318 0)
(-0.0255571 -0.000204427 0)
(-0.0250813 -0.00020242 0)
(-0.0246078 -0.000200305 0)
(-0.0241369 -0.000198088 0)
(-0.023669 -0.000195777 0)
(-0.0232043 -0.000193378 0)
(-0.0227431 -0.000190898 0)
(-0.0222857 -0.000188344 0)
(-0.0218323 -0.000185724 0)
(-0.0213833 -0.000183042 0)
(-0.0209388 -0.000180307 0)
(-0.020499 -0.000177524 0)
(-0.0200642 -0.000174699 0)
(-0.0196347 -0.000171838 0)
(-0.0192104 -0.000168948 0)
(-0.0187917 -0.000166033 0)
(-0.0183787 -0.0001631 0)
(-0.0179715 -0.000160153 0)
(-0.0175703 -0.000157198 0)
(-0.0171752 -0.000154239 0)
(-0.0167862 -0.000151281 0)
(-0.0164036 -0.000148328 0)
(-0.0160272 -0.000145384 0)
(-0.0156573 -0.000142454 0)
(-0.0152939 -0.00013954 0)
(-0.014937 -0.000136647 0)
(-0.0145866 -0.000133777 0)
(-0.0142427 -0.000130933 0)
(-0.0139054 -0.000128118 0)
(-0.0135747 -0.000125335 0)
(-0.0132505 -0.000122585 0)
(-0.0129328 -0.00011987 0)
(-0.0126215 -0.000117193 0)
(-0.0123168 -0.000114555 0)
(-0.0120184 -0.000111957 0)
(-0.0117263 -0.000109401 0)
(-0.0114405 -0.000106887 0)
(-0.0111609 -0.000104416 0)
(-0.0108875 -0.00010199 0)
(-0.0106201 -9.96077e-05 0)
(-0.0103586 -9.72707e-05 0)
(-0.0101031 -9.4979e-05 0)
(-0.00985329 -9.27327e-05 0)
(-0.00960921 -9.05318e-05 0)
(-0.00937074 -8.83763e-05 0)
(-0.00913778 -8.6266e-05 0)
(-0.00891022 -8.42008e-05 0)
(-0.00868796 -8.21802e-05 0)
(-0.00847091 -8.02039e-05 0)
(-0.00825896 -7.82715e-05 0)
(-0.008052 -7.63825e-05 0)
(-0.00784995 -7.45364e-05 0)
(-0.00765269 -7.27326e-05 0)
(-0.00746012 -7.09704e-05 0)
(-0.00727214 -6.92493e-05 0)
(-0.00708866 -6.75686e-05 0)
(-0.00690956 -6.59277e-05 0)
(-0.00673476 -6.43258e-05 0)
(-0.00656416 -6.27622e-05 0)
(-0.00639765 -6.12363e-05 0)
(-0.00623515 -5.97473e-05 0)
(-0.00607655 -5.82945e-05 0)
(-0.00592178 -5.68772e-05 0)
(-0.00577073 -5.54947e-05 0)
(-0.00562333 -5.41463e-05 0)
(-0.00547947 -5.28312e-05 0)
(-0.00533908 -5.15488e-05 0)
(-0.00520208 -5.02984e-05 0)
(-0.00506837 -4.90793e-05 0)
(-0.00493788 -4.78908e-05 0)
(-0.00481053 -4.67323e-05 0)
(-0.00468624 -4.5603e-05 0)
(-0.00456493 -4.45024e-05 0)
(-0.00444653 -4.34298e-05 0)
(-0.00433097 -4.23846e-05 0)
(-0.00421818 -4.13662e-05 0)
(-0.00410808 -4.0374e-05 0)
(-0.00400061 -3.94073e-05 0)
(-0.00389569 -3.84657e-05 0)
(-0.00379328 -3.75485e-05 0)
(-0.00369329 -3.66552e-05 0)
(-0.00359567 -3.57853e-05 0)
(-0.00350035 -3.49382e-05 0)
(-0.00340728 -3.41134e-05 0)
(-0.00331639 -3.33105e-05 0)
(-0.00322764 -3.25288e-05 0)
(-0.00314096 -3.1768e-05 0)
(-0.0030563 -3.10275e-05 0)
(-0.0029736 -3.0307e-05 0)
(-0.00289281 -2.96059e-05 0)
(-0.00281388 -2.89238e-05 0)
(-0.00273677 -2.82603e-05 0)
(-0.00266141 -2.76149e-05 0)
(-0.00258777 -2.69874e-05 0)
(-0.00251579 -2.63772e-05 0)
(-0.00244544 -2.5784e-05 0)
(-0.00237665 -2.52074e-05 0)
(-0.0023094 -2.4647e-05 0)
(-0.00224364 -2.41025e-05 0)
(-0.00217932 -2.35736e-05 0)
(-0.00211641 -2.30599e-05 0)
(-0.00205486 -2.2561e-05 0)
(-0.00199464 -2.20767e-05 0)
(-0.0019357 -2.16067e-05 0)
(-0.00187801 -2.11506e-05 0)
(-0.00182153 -2.07082e-05 0)
(-0.00176622 -2.02791e-05 0)
(-0.00171205 -1.98631e-05 0)
(-0.00165899 -1.946e-05 0)
(-0.001607 -1.90694e-05 0)
(-0.00155604 -1.86912e-05 0)
(-0.00150609 -1.8325e-05 0)
(-0.00145711 -1.79707e-05 0)
(-0.00140907 -1.7628e-05 0)
(-0.00136193 -1.72967e-05 0)
(-0.00131568 -1.69765e-05 0)
(-0.00127027 -1.66673e-05 0)
(-0.00122569 -1.63689e-05 0)
(-0.00118189 -1.60811e-05 0)
(-0.00113886 -1.58036e-05 0)
(-0.00109656 -1.55364e-05 0)
(-0.00105497 -1.52792e-05 0)
(-0.00101406 -1.50319e-05 0)
(-0.000973802 -1.47943e-05 0)
(-0.000934173 -1.45662e-05 0)
(-0.000895148 -1.43476e-05 0)
(-0.000856699 -1.41382e-05 0)
(-0.000818804 -1.39379e-05 0)
(-0.000781436 -1.37467e-05 0)
(-0.000744573 -1.35643e-05 0)
(-0.00070819 -1.33907e-05 0)
(-0.000672263 -1.32257e-05 0)
(-0.000636771 -1.30693e-05 0)
(-0.000601689 -1.29213e-05 0)
(-0.000566996 -1.27816e-05 0)
(-0.000532667 -1.26502e-05 0)
(-0.000498683 -1.25269e-05 0)
(-0.000465019 -1.24117e-05 0)
(-0.000431658 -1.23044e-05 0)
(-0.000398572 -1.22052e-05 0)
(-0.000365747 -1.21136e-05 0)
(-0.000333154 -1.203e-05 0)
(-0.000300781 -1.19536e-05 0)
(-0.000268595 -1.18854e-05 0)
(-0.000236593 -1.18236e-05 0)
(-0.000204731 -1.17707e-05 0)
(-0.000173017 -1.17219e-05 0)
(-0.000141398 -1.16845e-05 0)
(-0.000109896 -1.16434e-05 0)
(-7.84424e-05 -1.16242e-05 0)
(-4.70897e-05 -1.15755e-05 0)
(-1.57604e-05 -1.16101e-05 0)
(0.0586769 -0.295296 0)
(0.17605 -0.294785 0)
(0.293174 -0.29387 0)
(0.409831 -0.292465 0)
(0.525868 -0.290637 0)
(0.641083 -0.288351 0)
(0.75531 -0.285641 0)
(0.868371 -0.282489 0)
(0.980099 -0.278927 0)
(1.09032 -0.274942 0)
(1.19889 -0.270568 0)
(1.30563 -0.265795 0)
(1.41041 -0.260657 0)
(1.51306 -0.255149 0)
(1.61345 -0.249304 0)
(1.71145 -0.243122 0)
(1.80693 -0.236634 0)
(1.89977 -0.229846 0)
(1.98985 -0.222785 0)
(2.07707 -0.215464 0)
(2.16133 -0.207908 0)
(2.24254 -0.200131 0)
(2.32061 -0.192158 0)
(2.39548 -0.184007 0)
(2.46707 -0.1757 0)
(2.53532 -0.167257 0)
(2.60019 -0.158699 0)
(2.66164 -0.150048 0)
(2.71963 -0.141324 0)
(2.77414 -0.132548 0)
(2.82515 -0.12374 0)
(2.87264 -0.11492 0)
(2.91664 -0.106109 0)
(2.95712 -0.0973253 0)
(2.99413 -0.088588 0)
(3.02767 -0.0799147 0)
(3.05777 -0.0713242 0)
(3.08448 -0.0628322 0)
(3.10783 -0.0544563 0)
(3.12787 -0.0462108 0)
(3.14466 -0.0381116 0)
(3.15827 -0.0301715 0)
(3.16874 -0.0224046 0)
(3.17617 -0.0148221 0)
(3.18062 -0.00743623 0)
(3.18218 -0.00025648 0)
(3.18092 0.00670686 0)
(3.17694 0.0134461 0)
(3.17033 0.019953 0)
(3.16118 0.0262216 0)
(3.14959 0.0322455 0)
(3.13565 0.0380207 0)
(3.11947 0.0435427 0)
(3.10116 0.0488092 0)
(3.0808 0.0538176 0)
(3.05851 0.0585673 0)
(3.03438 0.0630573 0)
(3.00853 0.0672886 0)
(2.98105 0.071262 0)
(2.95205 0.0749798 0)
(2.92162 0.0784444 0)
(2.88987 0.0816593 0)
(2.85691 0.0846281 0)
(2.82281 0.0873557 0)
(2.78769 0.0898468 0)
(2.75162 0.092107 0)
(2.71471 0.0941423 0)
(2.67704 0.095959 0)
(2.6387 0.0975637 0)
(2.59977 0.0989635 0)
(2.56033 0.100166 0)
(2.52046 0.101177 0)
(2.48022 0.102007 0)
(2.4397 0.102661 0)
(2.39896 0.103148 0)
(2.35806 0.103476 0)
(2.31707 0.103653 0)
(2.27604 0.103687 0)
(2.23504 0.103585 0)
(2.1941 0.103355 0)
(2.15328 0.103006 0)
(2.11263 0.102543 0)
(2.07218 0.101976 0)
(2.03199 0.101311 0)
(1.99207 0.100555 0)
(1.95248 0.0997154 0)
(1.91324 0.0987981 0)
(1.87438 0.0978098 0)
(1.83592 0.0967567 0)
(1.7979 0.0956446 0)
(1.76032 0.0944793 0)
(1.72322 0.0932661 0)
(1.68661 0.0920101 0)
(1.6505 0.0907164 0)
(1.6149 0.0893896 0)
(1.57984 0.0880341 0)
(1.54532 0.086654 0)
(1.51134 0.0852533 0)
(1.47791 0.0838357 0)
(1.44505 0.0824046 0)
(1.41275 0.0809633 0)
(1.38101 0.0795149 0)
(1.34984 0.078062 0)
(1.31924 0.0766074 0)
(1.28921 0.0751535 0)
(1.25975 0.0737026 0)
(1.23084 0.0722566 0)
(1.2025 0.0708175 0)
(1.17472 0.0693871 0)
(1.14749 0.0679668 0)
(1.12081 0.0665583 0)
(1.09467 0.0651628 0)
(1.06907 0.0637814 0)
(1.04399 0.0624153 0)
(1.01945 0.0610655 0)
(0.995413 0.0597326 0)
(0.97189 0.0584176 0)
(0.948869 0.057121 0)
(0.92634 0.0558435 0)
(0.904298 0.0545855 0)
(0.882732 0.0533475 0)
(0.861635 0.0521297 0)
(0.840999 0.0509326 0)
(0.820815 0.0497562 0)
(0.801074 0.0486009 0)