/*--------------------------------*- C++ -*----------------------------------*\
| =========                 |                                                 |
| \\      /  F ield         | OpenFOAM: The Open Source CFD Toolbox           |
|  \\    /   O peration     | Version:  v2012                                 |
|   \\  /    A nd           | Website:  www.openfoam.com                      |
|    \\/     M anipulation  |                                                 |
\*---------------------------------------------------------------------------*/
FoamFile
{
    version     2.0;
    format      ascii;
    class       volScalarField;
    location    "450";
    object      aE;
}
// * * * * * * * * * * * * * * * * * * * * * * * * * * * * * * * * * * * * * //

dimensions      [0 0 0 0 0 0 0];


internalField   nonuniform List<scalar> 
65536
(
5.42145
5.41002
5.39986
5.41163
5.42198
5.41403
5.39622
5.41502
5.43254
5.42928
5.43681
5.43579
5.43893
5.43347
5.42862
5.44549
5.4494
5.44696
5.45653
5.47535
5.5058
5.52884
5.5376
5.5411
5.55992
5.57888
5.59813
5.6163
5.63166
5.64749
5.66533
5.67972
5.68781
5.69293
5.69765
5.70312
5.70496
5.70233
5.6981
5.69677
5.69741
5.69503
5.6872
5.67736
5.66244
5.63902
5.61871
5.60613
5.59027
5.57159
5.567
5.57557
5.5336
5.44778
5.47027
5.53829
5.52889
5.48822
5.45406
5.4447
5.47286
5.46897
5.38326
5.36621
5.48372
5.48558
5.27014
5.30498
5.55063
5.49733
5.10139
5.34161
5.69266
5.47996
5.05554
5.40931
5.66033
5.36881
5.11414
5.35855
5.53769
5.44716
5.09769
5.30035
5.48471
5.62332
4.89945
4.72541
5.45987
5.58868
5.39964
5.17194
5.21894
5.34095
5.3246
5.45805
5.31906
4.94484
5.01157
5.38893
5.39737
5.06382
4.8717
5.06786
5.30912
5.13719
4.9027
4.99622
5.09972
5.25051
4.99067
4.90422
5.1134
5.15087
4.98241
4.98393
5.16813
5.31729
5.19742
4.91685
4.77449
4.90777
5.17681
5.20776
5.17585
5.05351
4.88041
4.89723
4.97142
5.00397
4.97992
4.93106
5.08608
5.15507
4.99356
5.02098
5.11906
5.15857
5.40122
5.22435
4.98218
4.7793
5.06924
4.8244
5.22821
5.15089
5.37633
5.54371
5.60186
5.57649
5.42589
5.208
4.86078
4.53676
4.22601
4.00641
4.01126
4.24971
4.4813
4.72092
4.76062
4.83539
4.92228
4.90396
4.98676
4.91954
4.88271
4.93757
4.9066
4.89217
4.8764
4.87864
4.74609
4.94014
4.86911
4.88656
4.79791
4.9526
4.91767
4.96261
4.93981
4.94048
4.93207
4.92729
4.94244
4.87081
4.96903
4.93978
4.94813
5.00485
4.92471
4.93826
4.89782
4.87794
4.92792
4.8872
4.89714
4.8462
4.8879
4.86413
4.91256
4.94541
4.91016
5.00105
4.88939
4.87851
4.98264
4.70148
4.81625
4.76391
4.84556
4.93513
4.97792
4.95133
4.85523
4.94325
4.94919
4.83388
4.8888
4.68833
4.87225
4.9404
4.79582
4.88841
4.93153
4.90767
4.99266
4.76251
4.89754
4.97148
4.91277
4.95578
4.95009
4.95768
4.92992
4.8157
4.9776
4.95423
4.94291
4.96444
4.89145
4.7294
5.01182
4.90182
4.96886
4.87027
4.90053
4.98713
4.86153
4.94216
5.01146
4.94073
4.98281
4.94011
4.97286
4.89216
4.78557
4.82152
4.84059
4.84744
4.9918
4.89962
4.85873
4.89949
4.95038
4.94218
4.87565
4.81057
4.93142
4.68569
4.86924
4.7336
4.84672
4.85974
4.96499
4.68511
4.9764
4.92643
4.88466
4.86122
4.99128
4.88014
4.93334
4.89835
4.81832
4.96568
4.96185
4.95459
4.96858
4.9283
4.90317
5.04297
4.88659
4.93209
4.93441
4.96939
4.99319
4.95312
4.90964
4.97979
4.92984
4.90631
4.95871
4.91833
4.95475
4.92925
4.89371
4.80141
4.88528
4.91908
4.78812
4.90937
4.92468
4.96337
4.97652
5.00598
4.91561
4.94386
4.93641
5.01257
4.91182
4.95704
4.93532
4.9375
4.95631
4.98226
4.94615
4.97918
4.92295
4.89237
4.93401
4.92344
4.7448
4.90062
4.98071
4.84773
4.92005
4.92187
4.92773
4.88391
4.99525
4.8989
4.83004
4.95227
4.97065
4.97199
4.89355
4.82439
4.9209
4.75012
4.84545
4.92606
4.94161
4.96333
4.83536
4.81764
4.91089
4.89753
4.85887
4.90083
4.94032
4.91516
5.02429
5.03023
4.94372
4.94972
4.99038
4.94407
4.99789
4.83639
4.89727
4.96033
4.94348
4.96246
4.92265
5.00449
4.93236
4.98686
4.9436
5.01284
4.94143
4.92942
4.96657
4.90014
4.89452
4.92057
4.93711
4.98174
4.9712
4.8343
4.90083
4.90616
4.91416
4.72966
4.87572
4.86231
4.97441
4.92414
4.90912
4.88433
5.00653
4.90565
4.92148
4.93047
4.89545
4.94527
4.92675
4.91345
5.00357
4.86875
4.88574
4.90624
4.88293
4.97809
4.89912
4.92102
4.88828
4.80504
4.97956
4.82908
4.91742
4.90732
4.93013
4.91431
4.94262
4.81122
4.93905
4.95552
4.93868
4.9407
4.94684
4.87173
4.98742
4.93339
4.94605
4.81911
4.9395
4.87765
4.95086
4.93995
4.94424
4.97077
4.86271
4.95683
4.94701
4.92446
4.89447
5.0167
4.94352
4.88285
5.04123
4.92547
4.942
4.91564
4.81832
4.87568
4.93652
4.88344
4.9057
4.93186
4.89913
4.9734
4.91516
4.90531
4.84328
4.99162
4.91471
4.99309
4.90218
4.93182
4.8327
4.91673
4.94793
4.94215
4.94664
4.94469
4.82232
5.00154
4.94207
4.97148
4.99907
4.91751
4.94458
4.96749
4.79628
4.87942
4.9305
4.92471
4.89763
4.80256
4.94213
4.97243
4.92989
4.97677
5.00585
4.9009
4.94079
4.98372
4.94485
4.91613
4.93878
5.01915
4.94199
4.92021
4.94591
4.95477
4.97507
4.77875
4.9153
4.87189
4.89883
4.81797
0.451689
0.414558
0.381698
0.432962
0.463119
0.417727
0.329661
0.374858
0.41111
0.361058
0.35974
0.326669
0.309857
0.257965
0.198833
0.210736
0.170336
0.109101
0.0803335
0.0666259
0.092473
0.100142
0.0617684
0.00456807
0.0534697
0.10589
0.147525
0.165018
0.14439
0.128669
0.160716
0.188129
0.19647
0.211521
0.218613
0.217761
0.19783
0.203878
0.229855
0.240385
0.216054
0.170821
0.177106
0.174048
0.121072
0.11877
0.13265
0.0767283
0.0034414
0.012009
0.0563743
0.178728
0.204681
0.0342896
0.0833582
0.295524
0.367412
0.377027
0.384127
0.381988
0.467169
0.560776
0.465432
0.432358
0.74819
0.963015
0.547201
0.493571
1.12491
1.3847
0.476927
0.688741
1.63945
1.54461
0.495166
1.09895
1.8837
1.60489
1.03279
1.52787
1.78506
1.78024
1.15318
1.83127
1.37745
1.98995
1.65312
1.15521
1.81986
1.349
2.26014
2.26054
1.64559
2.14413
1.9609
1.97329
1.71477
1.89595
1.86952
1.73521
1.70223
2.26783
2.14979
1.31931
1.51416
2.05707
2.28753
1.70775
1.26167
2.18843
2.01716
1.56839
1.59843
1.80065
1.7722
1.92711
1.91519
2.09852
2.11379
2.09534
1.96397
1.76498
2.0491
1.88481
2.01108
1.85215
1.58116
1.94334
2.30254
2.29866
1.91946
1.57142
1.93827
2.14111
1.54417
1.88753
2.34721
2.37011
2.55335
1.41464
0.383094
0.268135
0.79044
0.14553
1.03256
0.428831
1.25094
1.24857
1.62581
1.84261
1.77968
2.36549
2.07553
2.30517
2.20574
2.17512
2.13018
2.03658
1.94403
2.25738
1.90417
1.97639
2.16511
1.95604
2.20509
2.0344
1.776
1.95225
1.87104
1.98138
1.94439
2.005
1.6795
2.21988
1.93301
1.94432
1.71517
2.16863
1.95661
2.12992
2.03053
1.92634
1.96831
1.97974
2.18808
1.79033
2.03994
2.01684
1.97103
2.26468
1.87981
2.03303
1.88416
1.83413
2.03857
1.92125
2.01916
1.83078
1.97241
1.88696
1.97347
2.10033
1.95445
2.25867
1.9998
1.89806
2.33752
1.45751
1.85293
1.67443
1.86821
2.01821
2.22296
2.20812
1.83147
2.19044
2.19243
1.83985
2.11639
1.50797
1.98558
2.15946
1.6634
1.95346
1.95897
1.87311
2.22786
1.56814
1.8952
2.11626
1.94473
1.97837
2.05692
2.02051
1.96959
1.68388
2.16377
1.99114
1.93347
2.08686
1.92359
1.45783
2.35215
1.91293
2.16852
1.80104
1.90553
2.20192
1.73541
2.00378
2.2024
1.93827
2.0859
1.99796
2.15907
1.94967
1.67801
1.74892
1.78574
1.74182
2.24123
1.8655
1.74993
1.93007
2.09974
2.137
2.02343
1.75578
2.22748
1.49834
2.05631
1.59337
1.87827
1.85099
2.35105
1.51789
2.35429
2.04283
1.92298
1.82995
2.29211
1.95552
2.08387
1.92289
1.60286
2.10392
2.04595
1.97578
1.96039
1.9195
1.90706
2.36037
1.78147
1.93266
1.93576
2.06924
2.10552
1.98393
1.82855
2.15689
2.00067
1.79347
2.11385
1.8739
2.05051
1.97051
1.91571
1.77574
1.87
1.9681
1.51659
2.00846
1.9314
1.98562
2.12365
2.17985
1.80171
2.03816
1.91498
2.22521
1.8463
1.95446
1.93082
1.92416
1.98308
2.13158
1.94268
2.18525
1.98783
1.9462
2.06325
2.1103
1.51495
2.01622
2.30563
1.87681
2.149
2.01924
2.08835
1.87935
2.31747
1.98814
1.81375
2.06935
2.12574
2.16459
1.9018
1.69736
2.11517
1.55364
1.85115
2.07274
2.16362
2.1711
1.95376
1.81434
2.21595
1.9913
1.72151
1.90284
2.06377
1.97205
2.3523
2.33001
2.01307
2.02807
2.151
1.98071
2.29543
1.66154
1.9175
2.0631
1.93346
1.97421
1.92802
2.15177
1.89998
2.07226
1.94339
2.21526
1.8791
1.97994
2.26955
1.96452
2.0117
2.11531
2.14307
2.32371
2.34328
1.93264
2.17756
2.28138
2.26279
1.65252
2.01443
1.83066
2.0293
1.99131
1.94504
1.89577
2.31064
2.05466
1.99643
2.02625
1.93793
2.08365
1.9802
1.88357
2.41483
1.91233
1.94822
2.11823
1.92524
2.33169
1.97743
2.05295
1.99768
1.69475
2.26305
1.71015
2.03628
2.06118
2.18561
2.00955
2.13919
1.62388
2.0309
2.09991
2.0015
2.10427
2.00615
1.78493
2.21538
2.06107
2.14614
1.76622
2.18882
1.84123
2.01381
2.0113
2.11738
2.11993
1.82454
2.191
2.16052
1.99402
1.93516
2.2883
2.01933
1.81803
2.30048
1.91913
2.02926
1.94216
1.72332
1.8328
2.07085
1.86706
1.98823
2.12047
1.9744
2.1666
1.96996
1.97978
1.72547
2.22231
2.07951
2.2573
1.94815
2.14548
1.78017
2.02171
2.14209
2.00766
1.95765
1.98215
1.67042
2.23287
1.9828
2.17865
2.22076
1.91285
2.05391
2.19097
1.64965
1.90262
1.95161
1.98434
1.92379
1.64901
2.02255
2.11107
1.84764
2.0409
2.10475
1.79445
1.93493
2.04719
1.96652
1.91816
1.97899
2.37635
1.97314
1.9877
2.08675
2.05142
2.15817
1.60899
2.10449
1.93324
2.08433
1.80569
1.75833
1.77632
1.79992
1.77163
1.74342
1.76885
1.82666
1.80247
1.77291
1.80023
1.79539
1.80952
1.81752
1.84255
1.8709
1.85466
1.861
1.88492
1.89413
1.89181
1.86174
1.83412
1.83062
1.84208
1.83637
1.82496
1.80751
1.78498
1.7552
1.72054
1.69631
1.68203
1.67853
1.68604
1.68004
1.67534
1.6784
1.67755
1.67341
1.67154
1.66878
1.67053
1.67617
1.67609
1.689
1.72009
1.73517
1.73687
1.75793
1.7836
1.77352
1.73639
1.78604
1.86517
1.77002
1.64194
1.68927
1.74442
1.72549
1.68469
1.64912
1.65078
1.67774
1.59978
1.40001
1.43333
1.74098
1.55127
0.937699
1.1445
1.90616
1.35274
0.138115
1.01534
1.78179
0.72235
0.118187
1.15862
1.58897
0.0547664
0.522932
0.507337
1.27847
0.586972
1.02916
1.08364
1.1467
1.73616
0.0530894
1.7004
0.417715
0.304105
0.664777
0.122506
0.697287
1.15678
1.34602
0.00355981
0.40567
1.18982
1.98732
0.454988
0.253275
1.30929
2.16101
1.43646
0.482918
1.19373
2.0663
1.08186
1.17351
1.20339
1.25455
1.62144
1.64521
0.780513
0.73751
0.799326
1.23731
1.08214
1.17356
1.47452
1.0748
1.35982
1.02367
1.61008
1.87851
1.32388
0.909769
0.893082
1.47477
1.73682
1.29749
1.06038
2.04105
1.53807
0.729722
0.549741
0.309682
0.997154
1.89514
2.26041
2.291
2.51229
2.60002
2.26165
2.90788
1.45978
2.96729
0.499304
2.88873
1.21768
2.16237
1.82209
1.90491
1.76345
1.6188
1.66356
1.67007
0.902436
1.56066
1.38008
1.02532
1.47397
1.124
1.09861
1.65853
1.47057
1.61091
1.31733
1.4589
1.50066
1.85964
1.07943
1.37984
1.39976
1.69186
1.1468
1.47163
1.10976
1.27174
1.75051
1.5685
1.42387
0.874335
1.65555
1.44968
1.19428
1.44471
0.854816
1.6027
1.23765
1.55264
1.69027
1.37241
1.55152
1.35028
1.71513
1.45892
1.51276
1.4524
1.21144
1.42733
1.0859
1.17902
1.56753
0.935265
2.31336
1.61909
1.9457
1.63633
1.60956
1.06243
1.08732
1.72345
1.21377
1.32488
1.75666
1.28661
2.11775
1.39193
1.1938
1.91249
1.3925
1.58862
1.62442
1.18655
2.02133
1.51369
1.14146
1.19117
1.40567
1.07962
1.35595
1.31188
1.62318
1.00634
1.32613
1.48126
1.28727
1.55187
2.28756
1.00497
1.62099
1.21696
1.82089
1.49377
1.03783
1.75955
1.36767
1.02784
1.34788
1.24452
1.27676
1.13783
1.48912
1.88589
1.79313
1.64534
1.70141
0.898419
1.50282
1.65788
1.38316
1.30849
1.23055
1.38691
1.94644
1.26698
2.23626
1.47199
2.09178
1.69245
1.77235
0.940843
2.08851
0.997811
1.57633
1.60382
1.76412
1.11079
1.19156
1.10603
1.44356
2.04543
1.13392
1.1968
1.32095
1.48525
1.43649
1.31789
0.833355
1.66939
1.57582
1.37277
1.25176
1.35351
1.41783
1.68272
1.14222
1.42734
2.0897
1.25796
1.71214
1.2415
1.46544
1.57648
1.64608
1.71365
1.45167
2.17902
1.21941
1.50112
1.56939
1.1123
1.2053
1.80709
1.28623
1.44481
1.00828
1.61116
1.51684
1.36272
1.32619
1.34962
1.08086
1.55075
1.029
1.34666
1.4196
1.45118
1.22872
2.26779
1.48365
0.983557
1.56216
1.13393
1.43464
1.2769
1.58803
0.989793
1.48774
1.67561
1.39747
1.15937
1.03601
1.42986
1.81451
1.24819
2.15443
1.68331
1.35619
1.23591
1.50201
1.32922
1.67775
0.880043
1.40273
1.99479
1.60843
1.3171
1.3725
0.800253
0.866021
1.42728
1.25707
1.12657
1.41883
0.822589
1.96325
1.37698
1.17789
1.44687
1.50626
1.27708
1.10531
1.43868
1.35961
1.32316
0.997013
1.74161
1.42662
0.856569
1.5805
1.41169
1.27856
1.25433
0.906502
0.964501
1.58302
1.33645
1.14391
1.15186
1.99662
1.37755
1.6444
1.51527
1.26567
1.50456
1.50625
0.942729
1.10854
1.48509
1.36011
1.38135
1.20437
1.39757
1.73159
0.658881
1.59972
1.5785
1.1706
1.47695
0.933898
1.49265
1.35047
1.39081
1.93761
1.08194
1.88148
1.36869
1.22864
0.982232
1.46149
1.21603
1.97573
1.44585
1.2392
1.38942
1.09443
1.45999
1.69874
1.05259
1.24877
1.16876
1.79748
1.07393
1.68277
1.54436
1.44438
1.09544
1.31827
1.59316
1.02156
1.11482
1.52981
1.53353
1.22261
1.43748
1.57828
1.03347
1.47979
1.30346
1.46756
1.80635
1.71388
1.12923
1.56818
1.31152
1.06435
1.48317
1.49126
1.64465
1.52138
1.91063
1.25318
1.27573
1.25608
1.57188
1.28152
1.80808
1.3847
1.03673
1.3082
1.51704
1.46262
1.63231
0.982026
1.41053
0.989966
1.01067
1.56501
1.30275
1.09444
1.9596
1.54009
1.58423
1.39453
1.45353
1.83255
1.38885
1.07866
1.55005
1.22093
1.36357
1.53657
1.48157
1.45018
1.46681
1.43503
1.43046
0.823392
1.54858
1.34581
1.20964
1.35571
1.2531
2.05349
1.25059
1.57183
1.40203
2.00254
1.0472
1.04372
1.05587
1.05797
1.03818
1.04735
1.07051
1.06194
1.06897
1.07293
1.07767
1.08931
1.07982
1.1093
1.13308
1.14013
1.15711
1.20432
1.24436
1.24239
1.24999
1.27243
1.31818
1.41028
1.42352
1.39202
1.39686
1.41335
1.44431
1.526
1.57585
1.61185
1.62404
1.54814
1.61009
1.56519
1.46129
1.47942
1.58966
1.56094
1.43646
1.33205
1.2796
1.25202
1.28491
1.3512
1.33851
1.28896
1.24291
1.13083
1.05604
1.16444
1.27289
1.17017
0.97834
1.02722
1.11111
1.10179
1.12293
0.991223
0.822128
0.924211
0.915747
0.662097
0.905157
1.0238
0.600127
0.579789
1.08514
1.00894
0.452667
0.596669
1.24479
0.499328
0.428446
0.919763
1.17785
0.89026
0.903778
1.0405
0.895634
0.89112
0.945247
1.4304
0.436064
0.867468
1.44886
1.33731
0.357325
0.56722
1.74647
1.40693
0.618403
1.60089
1.14818
0.465797
1.18751
1.13457
1.39041
0.398901
0.883591
1.78573
1.16409
0.26759
0.0813199
0.95136
1.762
0.151809
0.511962
1.32655
0.0730858
0.0507549
0.409471
0.363295
0.526289
1.21296
1.04079
1.44674
1.36574
1.77608
0.717692
0.0133244
0.733266
0.805629
1.54089
0.790943
1.01853
1.20486
1.34037
1.25155
0.784617
0.738243
1.28657
1.49031
0.279839
0.790358
1.41042
1.49757
1.90915
1.7193
1.73183
1.17693
1.69735
1.43999
1.61215
1.80323
1.27919
1.85614
0.702816
1.75908
1.94541
1.45069
1.93009
1.6499
1.63598
1.58462
1.61562
1.36947
1.20883
2.06127
1.08099
1.14786
1.53603
1.02264
1.30296
1.35478
0.710669
0.749678
0.733716
1.10913
1.16481
1.06986
0.54284
1.50879
1.24048
1.24746
0.739823
1.23398
0.783347
1.24114
1.23879
0.542539
0.840434
1.17425
1.82918
0.952146
0.96416
1.39698
0.927226
1.75734
0.888934
1.315
0.947066
0.721127
1.16769
0.979975
1.3121
0.796468
1.10444
1.05289
1.01113
1.21071
1.05197
1.42142
1.48857
0.906755
1.85613
0.0222354
1.08584
0.346423
0.862488
0.695029
1.57902
1.39931
0.761564
1.27519
1.16946
0.769937
1.39894
0.382968
1.23757
1.26024
0.244639
1.03088
0.803512
0.905389
1.51294
0.708259
1.22917
1.27154
1.24149
0.775765
1.30067
0.955251
1.29187
0.823872
1.51471
1.0974
0.866941
0.977042
1.16714
0.47483
1.86434
1.02448
1.40095
0.46744
1.04466
1.54322
0.600839
1.03002
1.56927
1.19273
1.14352
1.21889
1.43793
1.04251
0.51875
0.719319
0.931957
0.797255
1.77488
1.03916
0.839886
1.18336
1.09898
1.37351
1.36748
0.651332
1.58984
0.367048
1.21637
0.591013
0.981274
0.685655
1.7689
0.395739
1.77513
0.840497
0.946075
0.690809
1.34466
1.48347
1.50668
1.02255
0.252722
1.53297
1.39125
1.18422
0.997591
1.13352
1.42997
1.85738
1.03579
0.751173
1.22688
1.27344
1.0062
1.16548
0.659242
1.3576
1.12401
0.243122
1.37631
0.679482
1.38503
1.02979
1.01857
1.05343
0.858971
1.31191
0.177293
1.56805
0.955764
0.642232
1.31835
1.08328
0.651128
1.15119
1.40013
1.79068
0.935885
0.951138
1.13936
1.28159
0.993407
1.30674
0.738878
1.50481
1.28709
1.26476
0.987317
1.54842
0.0257239
1.14928
1.71851
0.89215
1.34691
1.10869
1.18303
1.07868
1.68874
1.0066
0.653039
0.998777
1.25094
1.5076
1.20731
0.708652
1.33913
0.326647
0.874428
1.31973
1.37992
0.944096
1.53057
0.978668
1.95397
1.17289
0.247997
0.67564
1.15824
1.24513
2.02436
1.94609
0.893365
1.23391
1.34576
0.987538
1.69642
0.0570006
1.06054
1.49623
1.01188
0.797964
1.33336
1.50333
1.07427
0.858056
1.36557
1.53995
0.570403
1.16838
1.82038
0.838468
1.04497
1.19178
1.35779
2.03644
1.76601
0.998888
1.35011
1.73385
1.66068
0.311551
1.14926
0.407487
0.141312
0.868244
0.782336
1.00512
1.7948
1.67388
1.00732
1.24448
1.20592
1.26597
1.13936
0.604109
2.06442
0.803726
0.934057
1.47848
1.36832
1.59609
1.0551
1.14882
1.07976
0.214913
1.48801
0.640284
1.29704
1.49084
1.74392
0.987864
1.30958
0.391257
0.816852
1.10191
1.20193
1.53557
0.980895
0.689818
1.60432
1.29499
1.37425
0.530356
1.47527
0.776292
0.927396
1.04311
1.51045
1.14274
0.966248
1.55747
1.52231
1.12722
1.17919
1.28299
1.07937
1.04737
1.60048
1.08286
1.20456
1.17823
0.678682
0.780896
1.60724
0.938645
1.29642
1.70114
1.13228
0.92231
0.885594
1.08261
0.665109
1.50931
1.42205
1.35657
1.11929
1.16278
0.629132
1.09942
1.52758
1.16462
0.691815
0.704979
0.750466
1.52046
1.06111
1.67753
1.65424
0.846087
1.27604
1.53795
0.528532
1.03949
0.853743
1.04937
1.11166
0.501155
0.973233
1.6158
0.947473
1.16101
0.687374
1.08589
0.886658
0.689372
0.816637
1.07219
1.25671
1.81665
1.1471
1.21052
1.26146
1.1297
1.33288
0.317742
1.4176
1.08676
1.36655
0.643208
1.26254
1.28978
1.26886
1.20985
1.24761
1.24887
1.27137
1.2568
1.11223
1.2625
1.158
1.09553
1.20778
1.12891
1.11084
1.03366
0.966768
0.896233
0.874463
0.92996
0.844658
0.737657
0.610342
0.416531
0.452372
0.570736
0.593046
0.553223
0.418653
0.190286
0.105155
0.0495413
0.087553
0.190706
0.114962
0.209987
0.383363
0.327663
0.0948551
0.104274
0.261255
0.384805
0.466923
0.503005
0.453211
0.343507
0.315417
0.335846
0.354862
0.477837
0.578667
0.456336
0.276046
0.399272
0.58804
0.434359
0.127314
0.207605
0.155135
0.0251969
0.353214
0.837291
0.214265
0.514786
0.118305
0.0294555
0.327306
0.21745
0.636432
1.05794
0.249638
0.389323
0.858189
0.578013
0.598329
0.04779
0.599895
0.489498
0.571649
1.31003
0.337815
0.464618
0.833916
0.514259
0.951049
0.486842
1.37235
0.306052
0.723994
1.08783
0.100822
0.433426
0.796839
0.480697
0.251355
0.627017
0.325951
0.371956
0.289117
1.04298
0.921719
1.23965
0.514365
1.5711
1.73387
0.0170811
1.34943
1.40928
2.41018
0.30202
0.476177
0.914623
0.874013
1.34744
0.714059
0.0799289
0.778208
0.828162
0.693972
0.00975317
1.40022
1.60471
0.63706
1.07492
0.671059
1.37057
0.0826515
0.983926
0.0425799
0.322413
1.16838
1.39438
0.8273
0.452827
1.69844
1.33143
0.837037
0.984098
0.778413
1.22552
1.22876
1.42875
1.7183
1.66663
1.83349
1.88233
1.42621
1.98213
0.628593
2.12986
1.41212
1.78995
1.6893
1.76496
1.60044
1.31448
1.18656
1.31207
1.32443
0.0031585
1.0022
0.996923
0.5462
0.985986
0.857449
0.871015
1.05585
1.19907
1.06475
1.05356
1.05027
1.2692
1.92427
0.708294
0.722046
0.693415
1.45409
1.03408
1.33498
0.906863
0.993837
1.74224
1.25933
1.26949
0.800671
1.24518
1.04298
0.575668
1.2615
0.111048
1.03093
0.750455
1.16383
1.28158
0.746392
1.02799
0.769701
1.39884
1.02041
0.913824
1.21453
1.04422
1.3336
1.21636
0.635954
1.0023
0.206856
2.49624
1.23218
1.73625
1.34803
1.82831
0.530554
0.812172
1.38837
1.06725
1.33678
1.53951
0.852922
2.28232
1.04418
0.73931
1.64767
0.80707
0.992431
1.14569
0.661222
2.47876
0.883804
0.699773
0.299089
0.874561
0.392025
0.662
0.445542
1.27662
0.450833
0.865977
1.2482
1.35787
1.19999
2.92566
0.18418
0.90996
0.709607
1.74884
0.9618
0.0270339
1.23928
0.945516
0.182767
0.831163
0.895929
0.81016
0.466916
1.07664
1.89796
1.45758
1.17327
1.32677
0.0923489
0.936963
1.13437
0.804446
1.01548
0.759225
0.802433
1.72286
0.752959
2.52498
1.26125
2.45064
1.13545
1.65991
0.377009
2.21394
0.531017
1.57087
1.26404
1.69067
1.19802
0.75917
0.30586
1.06541
1.96385
0.539255
0.49032
0.832116
0.989466
0.864559
0.574627
0.178357
0.974852
1.32748
0.906885
0.735516
1.25367
0.641476
1.51102
0.7698
1.14406
2.07971
0.899125
1.5821
0.678631
1.12643
1.22402
2.00087
1.2388
0.704816
2.20548
0.39917
1.06135
1.51905
0.870058
1.32131
1.43845
0.644219
0.120442
0.432049
1.13247
0.976496
0.758114
0.59621
1.04211
0.753605
1.45034
0.37138
0.350915
0.516336
1.15734
0.601623
2.45482
1.0281
0.135757
1.3212
0.803759
1.0048
1.2046
1.32268
0.691848
1.35306
1.56835
0.800691
0.849784
0.473114
0.794097
1.3677
0.909696
2.42551
1.46818
0.866691
1.0743
1.86199
0.179293
1.22796
0.367918
0.899863
1.46667
1.29694
1.01052
1.12298
0.193393
0.507461
1.70094
1.0327
0.558921
1.02283
0.0113063
1.59951
0.963966
0.308071
1.10482
1.13306
0.596219
0.355926
0.928939
1.39435
0.59545
0.587492
1.7291
1.16026
0.686234
1.50953
1.18753
0.993646
0.855122
0.184465
0.384516
1.30325
0.832378
2.26601
0.366406
1.8641
0.927844
1.53631
0.541249
0.997831
1.20153
1.14016
0.0927981
0.347215
1.1504
0.802291
0.812064
0.753324
0.767132
1.81206
0.126082
1.72072
1.33849
0.302026
0.058738
0.920075
1.08837
0.910935
0.927741
1.57877
0.508418
1.53877
0.920653
0.645491
0.361768
1.32533
1.04673
1.88585
1.36081
1.06075
0.856734
0.484248
1.15598
1.49479
0.231968
0.720404
0.767451
1.86031
0.613639
1.47051
1.18595
1.0141
0.478545
0.873764
0.969736
0.423868
0.384703
0.817957
1.13344
1.43936
1.56521
1.42479
0.918154
1.18881
0.948858
0.854284
1.84936
1.17394
0.430313
0.987943
0.613876
0.210733
0.983738
1.58643
1.45772
1.19235
1.59898
0.683033
0.904218
1.04838
1.23708
1.24043
2.05208
1.08864
0.463965
0.828588
1.18734
1.08126
0.746122
0.192456
0.891237
0.256123
0.293079
1.27976
0.822682
0.784016
2.1697
1.14046
1.32459
1.05344
0.76988
1.85425
1.09565
0.100834
0.866404
0.682284
1.5097
0.800233
1.20726
1.62344
1.33117
1.09591
0.914473
0.493661
1.05334
1.02913
0.854827
0.803838
0.770962
2.23978
0.817784
1.20591
1.0675
1.98893
0.1109
0.0571722
0.114619
0.212949
0.121306
0.11399
0.096931
0.146009
0.341763
0.106358
0.299405
0.362055
0.212142
0.380913
0.422169
0.513283
0.578847
0.688298
0.734882
0.686771
0.792621
0.905911
1.02934
1.16415
1.12249
1.05024
1.0776
1.13693
1.24964
1.38374
1.42669
1.47032
1.48002
1.3781
1.46979
1.4713
1.4248
1.42806
1.50371
1.47845
1.38442
1.33206
1.33917
1.34498
1.34144
1.34303
1.32248
1.30751
1.28435
1.1971
1.11401
1.1755
1.28489
1.22686
1.0871
1.11287
1.15919
1.01215
1.07981
1.20179
0.986012
0.915573
1.18629
0.959237
0.369878
0.764656
1.0969
0.886823
0.57968
0.437456
0.526408
0.706629
0.754876
0.122516
0.409705
0.685413
0.236329
0.498118
0.392255
0.735063
0.764108
0.272516
1.2521
0.157997
0.981196
1.02181
0.683632
0.694926
0.558622
0.29051
0.725031
0.3879
1.20645
1.0586
0.135614
0.635665
0.758427
0.758294
1.29911
0.572514
0.484167
0.505482
1.14254
0.130407
0.932773
0.888857
0.765788
1.29224
1.5055
0.611587
0.103293
0.167437
0.749227
0.921051
0.388478
1.37957
0.793956
2.04563
0.179483
1.28755
1.2532
0.400259
0.192063
0.211141
1.06095
1.06306
0.56508
2.23977
0.975663
1.0853
0.422716
0.365756
1.0981
1.41111
0.465383
0.783713
1.30846
1.35383
1.6209
1.58276
1.33381
1.36907
1.67042
1.30223
2.11887
0.913562
2.39891
0.130279
2.37642
0.942717
2.28339
1.21371
1.93338
1.39564
1.43083
1.61177
1.36466
0.925433
0.808128
2.01411
0.964189
0.847391
1.39282
1.13323
1.53282
0.786879
0.810184
0.520317
0.829699
0.974023
1.64407
0.612605
1.64577
2.02521
1.12177
1.21509
1.39301
1.69906
0.260741
0.75942
0.583258
1.03174
0.375922
0.568105
2.22778
0.626542
0.88689
1.42087
0.527906
1.70698
1.0933
1.07627
0.34862
0.677668
0.744841
0.380506
0.922855
1.24407
0.803154
1.08336
0.443691
0.669932
0.652583
2.55216
0.282674
0.475402
1.90815
1.98079
1.06105
1.52692
0.571121
0.112838
1.2792
0.643214
0.489655
0.709711
1.95307
0.234292
1.01654
1.43107
0.40867
0.810577
0.825043
1.01141
1.00013
0.91397
1.27764
2.00293
0.783199
0.639809
0.623641
0.0402309
0.189448
0.564572
1.27187
1.28909
1.20666
0.791942
0.122274
0.536787
1.32037
2.92222
1.70475
1.39837
1.79019
0.232895
0.719657
0.930239
0.274965
0.631148
1.39368
0.486524
0.64891
0.861012
1.36549
0.741123
1.76508
0.668647
0.781249
0.518427
1.89345
0.7852
0.457854
0.805216
0.357865
1.11971
1.35733
1.42725
1.20299
1.78329
0.229176
1.99494
0.568302
0.0280705
1.49725
1.16745
2.01078
0.299835
0.660004
0.144877
2.24207
0.308679
0.797483
0.154829
1.21572
0.891337
1.24227
0.948379
0.8464
1.21463
1.6504
1.8815
1.52191
0.732926
0.720886
1.09624
1.67368
1.44985
0.199764
1.15542
0.687249
0.858999
1.04174
0.217271
1.1838
0.620087
0.373057
1.82346
0.413855
0.782732
1.71286
1.2165
0.669688
0.180592
1.04337
0.362167
0.308703
1.08953
1.11509
2.66856
1.09816
0.878486
0.831866
0.940814
0.449042
0.499544
0.131827
1.33229
0.550015
1.23824
0.651974
1.37981
1.89779
0.813824
1.98189
0.470947
0.585646
0.570876
0.399949
0.499612
2.09367
0.561866
1.04053
0.843215
0.75285
1.31565
1.08887
0.577514
0.90974
2.02952
0.201153
1.19385
1.1236
2.32082
0.61902
0.547924
2.2
0.964251
1.12253
0.542708
0.998713
0.950416
2.27262
2.52399
0.144776
0.710403
1.33838
0.655721
1.77163
1.06486
0.520861
1.4963
0.573352
0.713584
1.29342
1.34373
0.935594
0.275628
1.17838
1.2467
0.385925
1.04213
2.05963
0.3498
0.327275
0.253337
1.02239
2.63192
1.6102
0.435418
0.60798
3.14059
1.45027
1.26844
0.752571
0.0147349
1.45731
0.689997
0.55677
0.713543
2.10865
1.60255
0.678467
0.999874
1.43957
0.976203
1.11501
0.0271103
2.57384
0.27088
0.442198
1.05669
0.406639
2.67427
1.02019
0.840407
0.622294
0.748143
1.48337
0.436102
1.05824
1.34935
1.44093
0.521468
2.07911
1.53906
0.00746728
0.560658
1.13152
1.24112
0.419902
0.0773118
1.89258
1.19655
0.931761
1.44869
1.15229
0.312821
0.939756
0.948463
1.25046
0.667778
0.565301
1.12759
1.18526
0.98984
0.93933
2.32065
0.505049
0.590427
2.37604
0.837936
0.889261
1.01555
1.46588
0.82316
1.22779
0.911267
0.944699
1.02207
0.876394
1.78922
0.832627
0.97218
0.406675
1.73987
1.31094
1.76138
0.732644
0.577331
1.8758
0.537967
1.19595
0.779378
0.323703
0.277444
0.0407171
1.24448
0.83929
1.42489
1.31467
0.465502
1.03393
0.955199
1.76727
0.588323
0.350378
0.720631
1.05363
1.43163
0.446675
1.59482
0.765005
0.990568
0.00960128
1.35585
0.744093
0.122941
0.337197
0.541137
1.01622
1.97779
1.19325
0.452852
0.327661
1.01996
1.24673
1.91018
1.05979
0.863061
0.955399
1.76545
1.18763
1.21004
1.19203
1.1554
1.18123
1.17391
1.19552
1.17859
1.11653
1.20162
1.11296
1.12134
1.1716
1.11949
1.13378
1.09633
1.05516
1.06148
1.09689
1.09362
1.05488
1.04722
1.0308
1.00856
1.01706
1.04361
1.06444
1.04969
1.02156
0.993019
0.978106
0.992173
1.0126
1.02625
1.03335
1.10941
1.15824
1.1594
1.12373
1.10729
1.13692
1.16196
1.1943
1.22234
1.2394
1.23378
1.1892
1.18961
1.2073
1.16282
1.14257
1.10432
1.28007
1.32503
1.12542
0.970015
1.18363
1.3005
1.04266
1.046
1.1599
1.10838
1.07239
1.1501
1.1039
0.800995
0.866745
1.06194
0.92343
0.741122
0.73496
1.03953
1.12134
0.767627
0.381543
0.685957
0.596163
0.702105
0.503879
0.952292
0.176031
0.175485
0.523304
0.855112
1.0974
0.0271932
0.643902
0.873753
0.0837376
0.57919
0.61888
0.510601
0.64662
0.632999
0.226968
0.754491
1.09067
0.391052
0.966505
0.304084
1.15194
0.567665
0.615891
1.07743
0.00601013
0.527093
0.50523
1.2396
0.0313639
0.847959
1.2217
0.86127
0.802486
0.429637
0.992665
0.538876
0.825251
1.78334
0.149142
0.966014
1.55722
0.0691133
0.442064
1.01687
0.39383
0.684055
1.13723
2.27524
0.132354
0.658971
1.23919
1.35928
0.829185
0.609145
1.31666
1.39536
1.21625
1.34917
1.24666
1.17279
0.842694
1.58364
0.862143
2.06387
0.759228
2.09735
0.690796
1.99237
0.913954
2.15945
1.2935
1.67929
1.60822
1.45887
1.25791
0.826038
0.860475
1.36451
1.20084
0.756298
0.0623139
0.737699
0.23281
0.39195
0.771019
0.387607
0.532903
0.787737
0.520352
0.668009
2.06214
0.987852
1.22324
1.91647
0.0614239
0.0295609
0.67582
1.14346
0.878887
0.492987
0.712701
0.922417
0.534249
0.494798
0.325195
0.61786
0.702245
0.0313896
0.887907
0.104142
0.045776
0.545472
1.02835
0.375862
0.221438
0.414475
0.472301
1.56209
0.644715
0.519062
1.25167
0.947699
0.909999
2.69117
0.393179
0.926712
1.2932
1.48925
2.47402
1.35409
1.33825
2.4217
0.417516
0.274985
1.36163
0.568166
1.75248
1.25134
0.437464
1.46821
0.732521
0.421066
1.215
0.0162965
0.493831
1.5904
0.335438
1.4672
0.697927
1.17675
0.0179746
0.844243
0.124465
0.817711
0.0738746
1.63109
0.0121607
0.448219
1.03877
0.166691
2.58489
0.860489
1.33877
0.120915
1.51682
2.31677
0.941901
0.142937
0.87164
0.709351
0.843775
1.0401
0.967186
0.75318
0.955528
0.731542
1.08307
2.38479
1.09966
1.66923
1.27502
0.726606
1.13263
0.570277
0.341532
0.376892
1.469
2.4439
0.219423
1.28596
0.932191
1.34339
0.991812
1.58601
0.915093
2.22729
1.75696
1.66042
1.14066
1.34394
1.92008
0.48174
0.2112
0.594142
1.19902
0.877965
0.436294
0.611036
0.633746
0.360092
1.12804
0.816592
2.13284
1.16684
0.863684
0.465023
1.57842
0.0786614
1.63615
1.03562
1.2874
1.25916
0.632816
1.47993
0.334387
0.985987
1.06606
1.25646
1.03905
0.807291
0.343457
0.0810301
0.633751
1.48654
0.627573
2.00965
1.84867
0.996584
1.88256
2.89581
1.50614
0.806182
0.476963
0.101377
0.500229
0.206388
1.58271
0.0703825
0.244219
0.169739
1.11517
1.05921
0.974865
0.478767
1.03918
0.750498
0.217403
0.691264
1.16724
1.28393
1.44986
0.746205
1.10355
0.177692
0.572666
0.987936
0.51246
1.87918
0.865531
1.07266
1.33495
0.409439
0.323331
3.05327
0.427953
1.02966
0.619725
0.768337
1.10375
1.03554
1.5605
0.756218
1.51992
2.08506
1.81936
0.942401
0.189625
0.718153
0.539184
0.65675
0.957736
0.390365
1.02121
0.993834
0.304431
0.737351
0.523295
1.50138
0.692239
0.64206
2.15108
0.598122
0.766216
1.18427
0.920463
0.207607
0.29769
2.18335
0.728939
1.17396
0.967198
0.0374646
0.146411
1.41362
1.05192
1.80076
0.615104
0.676207
0.980319
0.855833
1.55305
0.680456
0.922444
0.445571
1.62268
0.250399
0.474708
1.94689
1.96344
1.43501
1.0141
0.260938
0.402382
2.52551
0.274826
0.575758
0.696154
1.43995
0.186424
1.77061
0.841053
1.09088
0.115711
1.02551
2.06266
0.878792
1.39035
0.748747
1.18588
0.64664
1.45344
1.14414
1.45363
0.439198
0.577822
1.09559
0.422089
1.55385
2.09788
0.926374
0.547465
0.972946
0.714106
0.538347
0.00509445
1.15844
0.814566
2.22778
1.31935
1.00333
1.881
0.53615
0.632031
0.385786
1.38145
0.0780408
0.408302
1.84143
0.602653
0.122889
0.121939
1.394
0.506698
0.214442
1.51705
1.3448
0.427006
1.29531
1.16042
1.42681
1.08117
1.01407