/*--------------------------------*- C++ -*----------------------------------*\
| =========                 |                                                 |
| \\      /  F ield         | OpenFOAM: The Open Source CFD Toolbox           |
|  \\    /   O peration     | Version:  v2012                                 |
|   \\  /    A nd           | Website:  www.openfoam.com                      |
|    \\/     M anipulation  |                                                 |
\*---------------------------------------------------------------------------*/
FoamFile
{
    version     2.0;
    format      ascii;
    class       volScalarField;
    location    "450";
    object      aU;
}
// * * * * * * * * * * * * * * * * * * * * * * * * * * * * * * * * * * * * * //

dimensions      [0 0 0 0 0 0 0];


internalField   nonuniform List<scalar> 
65536
(
0.000315363
0.000869133
0.000954394
0.00155312
0.00162145
0.00161194
0.00128707
0.000915263
0.0005727
0.000693595
0.000833918
0.00124435
0.0012386
0.00215246
0.00172362
0.00150206
0.00186216
0.00152984
0.00112835
0.00115942
0.000940557
0.00036172
0.00185462
0.00280326
0.00282055
0.00299127
0.00258759
0.00170105
0.00124198
0.00244312
0.00264687
0.00197436
0.00156762
0.00105555
0.000907257
0.000380967
0.00128758
0.00279624
0.00266247
0.00211998
0.000877501
0.00130884
0.00282247
0.0019172
0.00239235
0.00334934
0.00244218
0.00174578
0.00134567
0.00121972
0.000329091
0.00248725
0.00574044
0.00425736
0.00236018
0.0021606
0.00148353
0.00267432
0.00357718
0.00181873
0.00251992
0.00564872
0.00643157
0.00558162
0.00265902
0.00805993
0.00734191
0.00759577
0.00486106
0.0124938
0.00861131
0.011152
0.0110863
0.0197426
0.0148741
0.0185033
0.00655291
0.0166755
0.00870781
0.00720786
0.0105142
0.0160413
0.0198269
0.0268534
0.0251086
0.0359334
0.0389291
0.0330341
0.0405727
0.0174445
0.0294019
0.0182738
0.00729687
0.0324992
0.0331259
0.037348
0.0599681
0.0466685
0.0569509
0.0484994
0.0517326
0.0616999
0.0391376
0.055813
0.0366231
0.0605544
0.0361252
0.0488592
0.0361586
0.0455782
0.0489077
0.0313248
0.0419684
0.019443
0.0445695
0.0243016
0.0285814
0.0272563
0.0167989
0.0375033
0.024147
0.0317584
0.0346666
0.021299
0.0268727
0.0394565
0.0314436
0.0255639
0.0306855
0.0176509
0.0188591
0.0281545
0.0218676
0.0117015
0.0185149
0.0191352
0.00420077
0.0145489
0.0155342
0.00873705
0.0156706
0.0108547
0.0123912
0.0143922
0.0116629
0.0131069
0.0183623
0.0229983
0.0227674
0.0172454
0.0121119
0.00816842
0.00548482
0.00394971
0.00256514
0.00120389
0.00113493
0.000419723
0.000548387
0.000349739
0.000485282
0.000265069
0.000445526
0.000966231
0.00095237
0.000421203
0.000306502
0.00037659
0.00014157
8.14093e-05
0.000175086
0.000534283
0.00098098
0.000838948
0.000362004
0.000118651
0.000209614
0.000417349
0.000160041
0.00036163
0.000594749
0.000961554
0.000855448
0.000484617
0.000201544
0.000176155
7.27792e-05
0.000254988
0.000196405
0.000333573
0.000825546
0.000662908
0.000767973
0.000394148
0.000530117
0.000830009
0.000407345
0.000426179
0.000127521
0.000575994
0.00080938
0.000844656
0.000556826
0.000354716
0.00110065
0.000548525
0.000728096
0.000655752
0.000806849
0.000986828
0.000588143
0.000343128
0.000133951
0.000345517
0.000833512
0.000584705
0.000515309
0.000801192
0.000969856
0.000492789
0.000179079
0.000650207
0.000917488
0.000267343
0.000274935
0.000498331
0.0003912
0.000490027
0.000584985
9.8062e-05
0.000208104
0.000633912
0.000782877
0.0011311
0.00104415
0.000508524
0.000128286
0.000487278
0.000601764
0.000336302
0.000436403
0.000495189
0.000780469
0.000470139
0.000850456
0.000870586
0.000810968
0.000782026
0.000396477
0.000683762
0.000687361
0.000497149
0.0005659
0.00049647
0.000906014
0.000422208
0.000672637
0.000535015
0.000116951
0.000497436
0.000776926
0.000572399
0.000610946
0.000440385
0.00035625
0.000319102
0.000433212
0.000330218
0.000573404
0.000482241
0.000436783
0.000638532
0.00122674
0.000708227
0.000509548
4.36226e-05
0.000408398
0.000203569
0.000683461
0.000385091
0.000676133
3.7901e-05
0.000274135
0.000654026
0.000653736
0.000717613
0.000758137
0.000375334
0.000908198
0.000220603
0.000738436
0.000864289
0.00109242
0.000630422
0.000327625
0.000287103
0.000619501
0.000298967
0.00075284
0.000336908
0.000445035
0.000395219
0.000496952
0.00043485
0.000999564
0.000789226
0.000703175
0.00029728
0.000119045
0.000159784
0.000246179
0.000611454
0.001385
0.000272455
0.000921186
0.000197401
0.000896505
0.000148649
0.000430682
0.000629983
0.00059015
0.000593451
0.000382561
0.000546119
0.000124314
0.000328357
0.000268476
0.000417083
0.000273058
0.00038238
0.00107914
0.00116498
0.000183966
0.00075854
0.00027998
0.000457486
0.000498249
0.000527941
7.87307e-05
0.000526655
0.000219997
0.000750812
0.000591774
0.000479954
0.000405997
0.000848473
0.000456804
0.000628775
0.000488361
0.000380131
0.000707612
0.000417941
0.000591995
0.00018921
0.00032559
0.000485325
0.0005793
0.000855626
0.000817583
0.00059027
0.000445993
0.000249006
7.18766e-05
0.000136414
0.000326933
0.000311469
0.000634016
0.000251246
0.000437375
0.000427292
0.000492659
0.000516984
0.000571151
0.000713939
0.0002255
0.000455781
0.000111172
0.000254031
0.000632314
0.00131127
0.000691818
0.000491278
0.000361576
0.000508132
0.000839955
0.000521357
0.000135914
0.000588259
0.000879737
0.000531049
0.000358703
0.000387559
0.000596039
0.000584288
6.18356e-05
0.000371182
0.000262573
0.000333654
0.000703589
0.000646985
0.000502555
0.000263708
0.000564681
0.000581216
0.000813536
0.000829944
0.000260881
0.000353088
0.000323413
9.42682e-05
0.000535409
0.000326206
0.000403274
0.000530389
0.00056196
0.000646045
0.00057128
0.000590769
0.000583342
0.000626802
0.000486525
8.88112e-05
0.000413865
0.000455539
0.000225394
0.000542414
0.000497631
0.000755443
0.000710118
0.000581016
0.000676333
0.000725851
0.000854969
0.000123278
0.00103707
0.00041355
0.000165166
0.000533004
0.000307125
0.000566694
0.000350587
0.000813171
0.000572247
7.1163e-05
0.000189475
9.87443e-05
0.000538248
0.000587847
0.000773699
0.000101517
0.000572413
0.000631111
0.00105849
0.00107426
0.000597033
0.000722001
0.000444445
0.000594219
0.000870724
0.000456118
5.20128e-05
0.000197981
0.000641794
0.000681599
0.000277765
0.000967217
0.000526121
0.000547634
0.000190879
0.000664455
0.000306528
0.000562702
0.00037807
0.000561341
0.000697398
0.000270489
0.000479487
0.000468965
0.000124939
0.000256826
0.000926377
0.00117831
0.000300318
0.000355579
0.000915099
0.000626731
0.000205446
0.000283879
0.000359263
0.000874283
0.000725772
0.000751331
0.00120561
0.000613872
0.000364652
0.000483796
0.000637122
0.00056815
0.000611532
0.000447998
0.0007005
0.000554246
0.000809515
0.000819237
0.000940781
0.000423174
0.00137374
0.000800517
0.000444348
0.000245377
0.000425531
0.000985103
0.000839457
0.000757347
0.00174071
0.000324063
0.000903952
0.00041745
0.00188139
0.00152763
0.00122727
0.000581571
0.0007389
0.000257696
0.000763267
0.000202335
0.00126335
0.00107335
0.000613551
0.00121285
0.00106733
0.00048711
0.000791904
0.00208509
0.00193283
0.00139848
0.000552333
0.000704975
0.00155474
0.0017401
0.00158009
0.00161382
0.00116533
0.000786347
0.000655564
0.00110881
0.000989996
0.0012205
0.00142135
0.000634398
0.000883937
0.0012493
0.000282736
0.000921082
0.000870399
0.0017471
0.000587002
0.000970029
0.00241295
0.000667413
0.0013304
0.000732955
0.00129305
0.00285465
0.00133974
0.00730236
0.00474518
0.00336086
0.00371364
0.000628312
0.00299198
0.00346905
0.00153716
0.00358982
0.00692325
0.00410591
0.00663754
0.00410533
0.0112896
0.00615247
0.0132484
0.00537923
0.0187679
0.00707255
0.0179404
0.00329829
0.0229853
0.00402445
0.0270825
0.00193785
0.0188339
0.00521457
0.00647147
0.00760022
0.00897104
0.0133508
0.0163938
0.0313679
0.0172612
0.0481585
0.00954942
0.0561669
0.0185523
0.0395462
0.0195379
0.0163213
0.0204118
0.0206693
0.0150487
0.0393583
0.0399739
0.0390748
0.0596207
0.0214008
0.0681645
0.0125525
0.067382
0.014871
0.0579401
0.0281766
0.0459371
0.0392629
0.0262576
0.0388253
0.0150453
0.0389298
0.0089474
0.0367261
0.0189208
0.0260136
0.0367274
0.0162703
0.0213536
0.0128311
0.0074173
0.0132383
0.0107795
0.0181207
0.0201455
0.0172725
0.010861
0.00600254
0.00645416
0.00853799
0.00722162
0.00803049
0.0177728
0.0123332
0.0141556
0.0171861
0.00673652
0.00860734
0.012995
0.00904232
0.0031207
0.0057352
0.00392931
0.00350335
0.00805475
0.0080877
0.00688576
0.00674896
0.00586185
0.00425176
0.00277446
0.00186932
0.00171725
0.000908676
0.000860956
0.000277356
0.000416389
0.000568309
0.000235946
0.000240585
0.000742186
0.000591155
0.000328178
0.000439313
0.000410561
0.000117744
0.000268068
3.98897e-05
0.000327294
0.000657068
0.000400858
0.000609434
0.000527045
0.000233381
0.000630083
0.000452344
0.000184684
0.000300048
0.000661331
0.000545802
0.000847443
0.000815899
0.000562515
0.000385296
0.000354893
0.000508908
0.000103296
0.000370446
0.000147003
0.000807842
0.000600841
0.000596462
0.000541524
0.000702717
2.27304e-05
0.000311642
0.000503536
0.000301185
0.000827708
0.000585765
0.000350967
0.000370065
0.000204909
0.000784967
0.000707392
0.000598444
0.000859226
0.000385113
0.000566543
0.000190462
0.000497358
0.00103062
0.000204219
0.000265177
0.000228793
0.0012235
0.000783178
0.000281487
0.00059676
0.000540714
0.000394018
0.000371868
0.000569848
0.000531015
0.0010659
0.000752556
0.00024082
0.00105558
0.000857731
0.000348546
0.000982796
0.000416999
0.000848401
0.000579706
0.000535857
0.000423443
0.000498257
0.000620738
0.000646401
0.00104244
0.000520739
1.42167e-06
8.35211e-05
0.00132086
0.00121767
0.000663478
0.000933948
0.000607122
0.000496311
0.000690592
0.000493943
0.000927136
0.000329788
0.000925788
0.000298997
0.000173166
0.000689843
0.000760486
0.00064937
0.000151264
0.000504485
0.000797753
0.000529512
0.000303372
0.000279833
0.00055292
0.00138544
0.000778516
0.000742798
0.000778987
0.000323863
0.000253865
0.000767301
0.000837593
0.00041157
0.000126549
0.000417285
0.00109199
0.000245014
0.000708096
0.000485627
0.000528768
0.000635088
0.000279451
0.00047673
0.000971228
0.000318152
0.0013017
0.000637914
0.000275707
0.000730256
0.000490833
0.000591756
0.000873274
0.000284258
0.000131958
0.000117058
0.000261667
0.000798331
0.000297558
0.000477782
0.000220565
0.000527243
0.000966669
0.000149008
0.000301732
0.000283353
0.000330802
0.000210343
0.00110101
0.000852783
0.00133662
0.000583734
0.000202163
0.000153954
0.00122708
0.000887146
0.00102479
0.000917511
0.000559172
0.000458223
0.00106042
0.00101765
0.000291642
0.000374247
0.000708258
0.000943387
0.00116863
0.000765925
0.00125155
0.000867925
0.000791759
0.000284366
0.000417502
0.000925968
0.000125595
0.000704513
0.000759
0.000770335
0.000168433
0.000756472
0.000616555
0.0011822
0.000542719
0.00152128
0.000592697
0.000379215
0.000665041
0.000321521
0.000614496
0.000483514
0.00028322
0.0005287
0.000469691
0.000773984
0.000879709
0.00032873
6.09779e-05
0.000522375
0.000799958
0.00029432
0.000530759
8.0269e-05
0.000155407
0.000150038
0.00056897
0.000142965
0.000626361
0.000634445
0.00109468
0.00102829
0.000473062
0.000205729
0.000256104
0.000388035
0.000282331
0.00109159
0.000517107
0.00108104
1.18692e-05
0.000354242
0.000816889
0.00034966
0.000179002
0.000919867
0.000460505
0.000317141
0.000472328
0.000665402
0.00101224
0.00141835
0.000441638
0.000381575
0.000472865
0.000391349
0.000306946
0.00012881
0.000409113
0.000140852
0.00042592
0.000682939
0.000864195
6.17922e-05
0.000694906
0.000955216
0.0004572
0.000647715
0.000769749
0.00125271
0.000620978
0.000862408
4.73539e-06
0.000510332
0.000550788
0.000378018
0.000648565
0.000117611
0.000273898
0.00023575
0.000646403
0.000399155
0.000260437
0.000243428
0.000528604
0.000713748
0.000495661
0.000705643
0.000274503
0.000159703
0.000535235
0.00039994
0.000568387
0.00109076
0.000868896
0.000479305
0.000823386
0.00105353
0.000346149
0.00110654
0.000157655
0.000305936
0.000533838
0.000162724
0.000177063
0.000204357
0.000514154
0.000364033
0.000159073
0.000434371
0.000552394
0.000598232
0.000800122
0.000214973
0.00043266
0.000487943
0.00100381
0.000472654
0.000611596
0.000361599
0.000205846
0.000794817
0.000806352
0.000587755
0.000488788
0.000876375
0.000266664
0.000112075
0.000633925
0.00106413
0.000733051
0.000231713
0.00026473
0.000532768
0.000301431
0.000333586
0.000163924
0.00147234
0.00103613
0.000590172
0.00159498
0.00118718
0.00155363
0.000659365
0.000762749
0.000580881
0.000172249
0.000819982
0.000714602
0.00145746
0.00142724
0.000999371
0.000922624
0.000525551
0.000461529
0.000296081
0.000716948
0.000417777
0.000731988
0.000348749
0.000885326
0.00105994
0.00105624
0.000760441
0.000812468
0.0010247
0.00110209
0.000282356
0.000678613
0.000831527
0.00195208
0.000323026
0.000919773
0.00137799
0.000363655
0.00157177
0.00100389
0.00191541
0.0010309
0.00192102
0.00117787
0.00075849
0.000402951
0.00027501
0.000247694
0.0010729
0.000632523
0.000843508
0.00118292
0.00166293
0.00127941
0.000785251
0.00130346
0.00190094
0.00185016
0.00215175
0.00175001
0.00124769
0.000948722
0.000311844
0.00159392
0.00110527
0.000833143
0.000690064
0.000623898
0.000682268
0.000915259
0.00148131
0.00197946
0.00220598
0.00260222
0.00179045
0.00145895
0.0013529
0.0010711
0.0013919
0.00164863
0.00124867
0.00049021
0.00132348
0.00241922
0.000228229
0.000451175
0.00512878
0.0040898
0.00407903
0.00452774
0.00428347
0.00458631
0.00304589
0.00401172
0.00249353
0.0022416
0.00210101
0.00422239
0.00371834
0.00925073
0.010248
0.0113872
0.0118026
0.0199077
0.0185589
0.0189022
0.0140237
0.0250375
0.00712394
0.0247311
0.00733185
0.0265435
0.00707794
0.00661456
0.0101813
0.01174
0.00684418
0.0217434
0.0194394
0.0318132
0.037095
0.0397694
0.0437559
0.0380412
0.0469595
0.0308419
0.039257
0.0122222
0.0324565
0.0169158
0.0308397
0.020135
0.0232018
0.0439377
0.0227068
0.061021
0.0111005
0.0576986
0.0249751
0.0542099
0.0360306
0.0351206
0.0368395
0.0276159
0.0417412
0.00603202
0.0349696
0.00491071
0.030436
0.0196641
0.0160004
0.0325928
0.0201033
0.0074331
0.0247786
0.0294881
0.0172867
0.00615813
0.0353799
0.051116
0.026336
0.0238294
0.0486208
0.029361
0.0103022
0.0334755
0.0335969
0.0179484
0.00939023
0.0208204
0.0161334
0.0124104
0.0119921
0.00499983
0.0108998
0.00636266
0.00125948
0.00325036
0.00494169
0.0108688
0.0136855
0.00802874
0.00731277
0.00903271
0.00714777
0.00486315
0.00272047
0.00189519
0.0013303
0.00106287
0.000423781
0.00038239
0.000384733
0.000291613
0.000133301
0.000506569
0.00040839
0.000354063
0.000502067
0.000211303
0.000273791
8.38382e-05
0.000266548
0.000163168
0.000284676
0.000533501
0.000113714
0.000624781
0.000237842
0.000511473
0.000657003
0.000556142
0.000570801
0.00049539
0.000625306
0.000910427
0.00117908
0.00104939
0.00068458
0.000776538
0.000397207
0.000830528
0.000532023
0.000303547
0.000629646
0.00116262
0.00074141
0.000424635
0.000578942
0.000486478
0.000642777
0.000590709
0.000447214
0.00060531
0.000945556
0.000405802
0.000135713
0.00032583
0.000370282
0.000979928
0.00075135
0.00070308
0.000331289
0.000436627
0.000204832
0.000450675
0.000739111
0.000815794
0.00108267
0.000423553
0.000969126
0.000644643
0.00092006
0.000610853
0.000818501
0.000485109
0.00133421
0.00080389
0.00070239
0.00127408
0.0013309
0.00119787
0.00135848
0.000796465
0.00159291
0.00113968
0.000814842
0.000522685
0.000629346
0.000721174
0.00074645
0.000928181
0.000811241
0.000636072
0.00134556
0.00140717
0.000965523
0.000708537
0.000854748
0.0017051
0.00159108
0.00137
0.000804418
0.00113421
0.00107928
0.000743108
0.0010315
0.000952367
0.000714669
0.000777023
0.000252279
0.000313987
0.000861195
0.00116233
0.000569737
0.00072612
0.000571478
0.000866988
0.000833833
0.000430913
0.000241335
0.00149125
0.00150347
0.00196242
0.000831991
0.000420778
0.000336776
0.000568139
0.00110283
0.000764655
0.000727932
0.000610039
0.000778096
0.000537705
0.00117776
0.000732717
0.00115353
0.000458688
0.000778202
0.000593594
0.000748156
0.000365012
0.00146559
0.000918796
0.00111492
0.00074963
0.000665216
0.000714424
0.000641266
0.00138966
0.000745561
7.31431e-05
0.000197841
0.000691476
0.000641458
0.000366987
0.00053148
0.000710222
0.00124573
0.00133251
0.000856465
0.000205129
0.000591071
0.000483828
0.00101741
0.00153708
0.00136468
0.00113058
0.00102038
0.000535126
0.000836724
0.00126186
0.00183307
0.00141779
0.00092354
0.000874123
0.00129005
0.0013984
0.00125866
0.000979258
0.000705605
0.000600114
1.94532e-05
0.00127983
0.00187552
0.00154671
0.000571277
0.00089711
0.000588572
0.000560592
0.000945433
0.000966295
0.00108011
0.00081451
0.00080028
0.000914956
0.000475963
0.000470803
0.000614029
0.00173856
0.000944847
0.0013849
0.000905465
0.00106373
0.000799007
0.000331034
0.000590543
0.000848828
0.000663396
0.000774958
0.00124539
0.000828006
0.000643794
0.000368891
0.000630617
0.00100425
0.000337976
0.000227964
0.000395896
0.000285936
0.000455751
0.000382269
0.000732424
0.000400751
0.000570466
0.00134925
0.00102154
0.000811207
0.000365362
0.000354197
0.000365432
0.0013858
0.00144877
0.0013696
0.00114938
0.000589716
0.000498927
0.000643841
0.000597672
0.000930127
0.000989617
0.00100819
0.000491616
0.000158347
0.000746348
0.00163945
0.00113126
0.00104609
0.00036725
0.000851579
0.000481586
0.000160291
0.000410571
0.000241515
0.000580472
0.000845295
0.00132223
0.00106111
0.000929198
0.00102216
0.000927744
4.5112e-05
0.000898783
0.00178519
0.00162733
0.000622546
0.000878281
0.000925154
0.000687913
0.000116148
0.00113867
0.000483567
0.00057826
0.000526521
0.000342162
0.00037979
0.000594678
0.000609457
0.000662035
0.000185213
0.000525429
0.000668783
0.000385231
0.0005628
0.00064333
0.000149189
0.000430669
0.00124866
0.00163555
0.00140022
0.00129129
0.00125648
0.0011521
0.000690363
0.00090432
0.000749111
0.00025969
0.000444539
0.000415155
0.00032151
6.08495e-05
0.000495711
0.000389513
7.39113e-05
0.000503441
0.00107738
0.0004718
0.000409765
0.00080242
0.00109371
0.000266618
0.000871895
0.00115942
0.000907558
0.000830788
0.000923845
0.000739965
0.000969069
0.00120935
0.000409473
0.000612275
0.000729766
0.000329963
0.00105614
0.00152903
0.000849548
0.000768517
0.000301134
0.000206079
0.000684465
0.000154116
0.000885118
0.00205154
0.00144691
0.00130935
0.00187472
0.00275266
0.00129736
0.000502462
0.00120122
0.000693782
0.000311355
0.00101409
0.00121155
0.00164112
0.00282425
0.00153937
0.00115376
0.000303412
0.000446846
0.000526151
0.000617628
0.000847538
0.000476158
0.000271917
0.00102933
0.000972819
0.00105036
0.000431359
0.00167895
0.00188006
0.00182533
0.00136005
0.000735223
0.00201818
0.00332283
0.000195113
0.00060017
0.000314706
0.000258811
0.00075252
0.00156141
0.00134446
0.000349349
0.00165308
0.00171487
0.00105545
0.000604849
0.00015594
0.000734849
0.0007277
0.00048647
0.001055
0.000240868
0.00072112
0.00158946
0.000577036
0.000767018
0.00192526
0.00200926
0.00082348
0.000916448
0.000708037
0.00113
0.000556118
0.000511707
0.00130999
0.00148474
0.00125009
0.00124797
0.00231245
0.00193753
0.000640317
0.000503044
0.00149572
0.000972506
0.00102664
0.0013152
0.000887437
0.00041633
0.00204481
0.0025105
0.00101934
0.00150138
0.00226164
0.00253459
0.00292508
0.0016952
0.00303795
0.00244065
0.00487744
0.00322428
0.00222318
0.00325815
0.00277355
0.00177872
0.00708143
0.00266788
0.00818088
0.00215437
0.0105537
0.00836756
0.00800311
0.0112579
0.013987
0.0154583
0.016277
0.013966
0.0190876
0.0130892
0.0184957
0.0107845
0.014992
0.0157094
0.0159632
0.0180394
0.0151611
0.0193988
0.0110608
0.0127249
0.0215023
0.0176671
0.0395546
0.0129601
0.0404781
0.0195246
0.0392965
0.0164123
0.0268532
0.0185214
0.0247522
0.00758938
0.0223856
0.0142806
0.0223746
0.0199541
0.0442375
0.00396713
0.0463036
0.00854389
0.0492896
0.0251964
0.0377989
0.0320158
0.0276269
0.0384954
0.0131289
0.0408052
0.00413972
0.0386609
0.0267814
0.0140638
0.0320136
0.0185353
0.0209196
0.0335346
0.027115
0.00642689
0.0185011
0.0266208
0.0140886
0.0174562
0.0467482
0.046287
0.0159819
0.021166
0.0162787
0.00332135
0.0148457
0.0247863
0.0301484
0.0236543
0.00830177
0.00846022
0.0058573
0.00565125
0.00662504
0.0167349
0.0145837
0.00722721
0.00524792
0.0121195
0.0107411
0.00228308
0.00947212
0.00916618
0.00607184
0.00355246
0.00216439
0.00143667
0.00113916
0.00120666
0.000163561
0.000305166
0.000119442
0.000178332
5.93767e-05
0.000684315
0.000171745
0.000390835
0.000615629
0.000685714
0.000593894
0.000434167
0.000333434
0.000383511
0.000507402
0.000321289
0.000267026
0.000665906
0.000556479
0.000594647
0.000855653
0.000730314
0.00101396
0.00040785
0.000324278
0.00121874
0.00104705
0.00126458
0.000826679
0.000604707
0.000937747
0.000784823
0.00100096
0.000232577
0.000945797
0.00135535
0.00111452
0.00070022
0.000412284
0.000368761
0.000771852
0.000521853
0.000712208
0.001044
0.000847898
0.000930851
0.00106894
0.000818259
0.00147856
0.000952694
0.00114306
0.000480024
0.000249603
0.000424725
0.000323785
0.000467303
0.000879826
0.0018781
0.00109558
0.00176246
0.00106267
0.00104671
0.000491941
0.000809865
0.00129572
0.00171073
0.00175659
0.00206904
0.000731128
0.00172841
0.00164404
0.00184961
0.00166026
0.000513531
0.00280929
0.001288
0.00228924
0.00110237
0.000211085
0.000960357
0.0012997
0.00156457
0.00160892
0.000332487
0.00150045
0.00234574
0.00147625
0.00102649
0.00185586
0.00201287
0.00148224
0.00190394
0.000509565
0.0014149
0.00176001
0.00118643
0.0013825
0.0014168
0.000437281
0.00130491
0.000678461
0.0006808
0.000733914
0.00194598
0.000592384
0.00120134
0.000284758
0.000956024
0.000738428
0.000621982
0.000989925
0.00189763
0.00177767
0.00300511
0.000511013
0.000670275
0.00051121
0.000436502
0.00123212
0.000523284
0.00105462
0.000679933
0.000646044
0.00041956
0.00136215
0.000134568
0.00149878
0.000704403
0.000310938
0.00106776
0.000477205
0.00148361
0.000975545
0.000978259
0.00165673
0.000746031
0.000676181
0.000796709
0.00143004
0.00141664
0.00175338
0.000547874
0.000531587
0.00086132
0.000508763
0.000465911
0.00070927
0.000985428
0.000708322
0.00289011
0.000817356
0.000468154
0.000146096
0.00181443
0.00122085
0.00339564
0.00110561
0.0016775
0.00122214
0.000230162
0.00119361
0.00135991
0.00270627
0.00126835
0.00113634
0.00119768
0.00184118
0.00149585
0.00156742
0.00138777
0.000651241
0.000538661
0.000616387
0.000888468
0.00260001
0.000398739
0.00127858
0.00106624
0.000672415
0.000451441
0.00117895
0.00152322
0.000966117
0.000857525
0.000876161
0.0011995
0.000753089
0.000195376
0.000665294
0.00171386
0.000520245
0.00224318
0.00114958
0.00238501
0.000839036
0.000323233
0.000530589
0.00124794
0.0016256
0.000788125
0.0013695
0.00126817
0.000341032
0.000315088
0.000879682
0.000806846
0.000602835
0.000105686
0.000185612
0.00057006
0.00062021
0.000620611
0.000752561
8.28332e-05
0.000825381
0.000986955
0.0011476
0.000801486
0.000558063
0.000576792
0.000806374
0.00125471
0.00332685
0.00158915
0.00218914
0.00024649
0.000834126
0.000554151
0.00106968
0.00133704
0.00174971
0.000913897
0.00139144
0.000484451
0.000499235
0.00185815
0.00055548
0.00156073
0.00108075
0.00108144
0.00100052
4.7596e-05
0.000695732
0.000658227
0.00123649
0.00120046
0.00165865
0.00223315
0.00068694
0.00209458
0.000857735
0.00045158
0.000712075
0.00325599
0.000519064
0.0010098
0.0005944
0.00153404
0.000350453
0.000989494
0.00150611
0.00198299
0.000787547
0.000704512
0.000838791
0.00114642
0.00114862
0.000700515
0.000767664
0.000559388
0.000797485
0.000593058
0.000169721
0.000436965
0.000902021
0.000833953
0.00135446
0.00196828
0.001104
0.0029574
0.00148805
0.00058236
0.00157555
0.000182588
0.00139749
0.000838731
0.000315212
0.00072713
0.000121646
0.000341119
0.000639486
0.000647129
0.000436554
0.000295797
0.000889056
0.000628673
0.000737887
0.000328973
0.00149685
0.000584373
0.00039673
0.000927494
0.00230395
0.00180729
0.00145592
0.00191492
0.00057876
0.00139841
0.00121529
0.000396905
0.000243548
0.00089473
0.000688353
0.000771487
0.00265787
0.000762811
0.000781702
0.00070288
0.00055937
0.000328386
0.000343872
0.00191698
0.00163243
0.00326337
0.00216798
0.000769987
0.00394698
0.000376459
0.000421559
0.000813342
0.00102247
0.00103493
0.000842509
0.00143279
0.00151946
0.00469596
0.00069355
0.00231203
0.0011515
0.00129573
0.00122963
0.000890471
0.00125007
0.000246902
0.00102135
0.000252751
0.00133063
0.00069836
0.000307973
0.00297763
0.00136248
0.00393949
0.000739633
0.00303667
0.00281289
0.00443475
0.00026435
0.000479585
0.00104399
0.000803316
0.000400687
0.000369037
0.000414738
0.001043
0.00154075
0.000625151
0.000411685
0.000950795
0.000761691
0.000800956
0.000474099
0.000166331
0.00106962
0.0015321
0.000969608
0.000504826
0.000522401
0.00065669
0.000403012
0.00138457
0.00106482
0.00157964
0.00248566
0.00194307
0.00122458
0.000399168
0.000426401
0.00106968
0.00118452
0.00183635
0.00237937
0.00168938
0.00221596
0.0013667
0.00100666
0.00122618
0.000670013
0.00199998
0.00216611
0.00122275
0.000468328
0.00127212
0.00102322
0.000612673
0.00198375
0.00245441
0.00142698
0.00491738
0.00137695
0.00407747
0.00273851
0.0041041
0.00488009
0.000755966
0.00371381
0.00643582
0.00588866
0.0133791
0.00692977
0.0159406
0.00410528
0.00828077
0.00435302
0.00504355
0.01169
0.014829
0.00862166
0.0235093
0.00847436
0.0251182
0.0164978
0.0155795
0.021042
0.00668568
0.0210971
0.0262144
0.0228801
0.0310096
0.0193261
0.0212138
0.00729097
0.020724
0.00539149
0.0257665
0.00978034
0.0299153
0.0096066
0.0221116
0.00606958
0.0184396
0.0145804
0.00312009
0.02089
0.020134
0.0233423
0.0405249
0.0123357
0.0471022
0.00662152
0.0408846
0.011572
0.040193
0.0222778
0.0283261
0.029367
0.0165474
0.0328859
0.00949109
0.0381879
0.0176124
0.0215575
0.0215698
0.0112091
0.0307248
0.0196821
0.00509353
0.013857
0.0158544
0.0118881
0.00996204
0.0210546
0.017183
0.00953377
0.00471806
0.0123813
0.0076793
0.00215148
0.00830206
0.00723189
0.00581323
0.00459719
0.0142582
0.0274394
0.0174207
0.00362119
0.00737843
0.0178517
0.0176496
0.00834004
0.00781415
0.00696594
0.0142463
0.00508588
0.00780036
0.0121029
0.00916046
0.00541972
0.00341529
0.00206387
0.00168329
0.0010502
0.000830622
0.000126058
0.000836574
0.000247846
0.000480753
0.000467022
0.000821746
7.26883e-05
0.000673482
0.000725685
0.000850278
0.00131423
0.00030858
0.000268373
0.000189012
0.000576773
0.00052994
0.000936174
0.00127771
0.000886226
0.000498535
0.00151157
0.000244251
0.00121567
2.82504e-05
0.000168828
0.00171538
0.000565981
0.00161571
0.000921504
0.000534748
0.00123
0.000458513
0.00141301
0.000233666
0.0012964
0.00141907
0.00141595
0.000468296
0.000938255
0.00056654
0.000880548
0.000762662
0.000480006
0.00159941
0.00133099
0.000447518
0.00165663
0.000529872
0.00182549
0.000235158
0.00186026
0.000360188
0.000794012
0.00120834
0.000805078
0.000247352
0.00168394
0.00161973
0.00193181
0.00252667
0.000461294
0.00143541
0.00063651
0.00103656
0.00206028
0.00215285
0.00186266
0.00259846
0.000568122
0.00223592
0.0017909
0.00197075
0.0019266
0.00128101
0.00309126
0.00231647
0.00308788
0.0002648
0.000676048
0.00107266
0.00164676
0.00169322
0.00172766
4.19699e-05
0.00191916
0.00252368
0.00201787
0.00064201
0.0025024
0.00166133
0.0016929
0.00173421
0.001213
0.00181196
0.00190074
0.00232761
0.00134989
0.00197212
0.000521228
0.00165046
0.00123025
0.000489197
0.00017867
0.00222948
0.00109445
0.00140101
0.000590954
0.000869655
0.00051234
0.000373432
0.00167541
0.00175235
0.00259965
0.00240856
0.00185759
0.000479817
0.00128044
0.000731402
0.00118708
0.00077353
0.000959814
0.000949668
0.000298493
0.000205326
0.00118989
0.000360628
0.00215081
0.000531508
0.00103711
0.000879113
0.00136554
0.00114609
0.000420297
0.00159104
0.00182249
0.00200452
0.000762447
0.000980096
0.00182417
0.00109103
0.00241812
0.00142612
0.00135267
0.000946406
0.00148409
0.000765124
0.000780863
0.00151957
0.00322026
0.0022013
0.000962156
0.000878326
0.000979398
0.00182162
0.00167108
0.00321506
0.00251638
0.00110956
0.0018873
0.000341246
0.000981784
0.00239964
0.00229653
0.0023236
0.000589777
0.00104341
0.00228986
0.00140893
0.0016281
0.00123692
0.000831832
0.000643992
0.000624292
0.00131453
0.0020236
0.00166921
0.000415972
0.000637661
0.00103215
0.000903675
0.00197879
0.0023032
0.00127524
0.000430479
0.0016567
0.00249501
0.000569603
0.000910278
0.00130773
0.00158396
0.000696463
0.00280189
0.00105969
0.00296721
0.000574938
0.000379223
0.000781353
0.0015224
0.00131788
0.00147462
0.00119551
0.00190492
0.000158431
0.000560702
0.000789177
0.00140961
0.000677456
0.000471865
0.000376104
0.000685033
0.000205373
0.000670792
0.000689893
0.000348646
0.000888172
0.00108187
0.00121949
0.00105931
0.00117217
0.000798737
0.000449735
0.0029198
0.00307049
0.00107809
0.00269729
0.00057704
0.00103184
0.00102016
0.00153973
0.00132921
0.00220806
0.000879332
0.00161992
0.000918419
0.000612932
0.00180013
0.00087767
0.00182887
0.00218565
0.00109094
0.00141392
0.00030004
0.000463039
0.00175174
0.00124841
0.00223776
0.00208005
0.00204342
0.000855009
0.00250382
0.000235761
0.000270184
0.00063
0.00269604
0.00269882
0.000233312
0.000421473
0.00172885
9.2316e-05
0.00200727
0.000462191
0.00240337
0.00103016
0.00104989
0.00126914
0.00139825
0.00135961
0.00105839
0.000870413
0.000513716
0.0010236
0.000718939
0.00107384
0.000400569
0.000890851
0.00170652
0.00132226
0.00146138
0.00223026
0.00237151
0.00211233
0.00113991
0.00213288
0.0017342
0.00136348
0.00154136
0.00033779
0.000965208
0.00096673
0.000551171
0.000272293
0.00166461
0.000394316
0.000580619
0.000306385
0.00199389
0.000810367
0.00108417
0.00100756
0.00195864
0.000322621
0.000967572
0.00297682
0.00213559
0.00197071
0.00197351
0.000503711
0.00166481
0.0018476
0.000556242
0.000559107
0.000737918
0.000692562
0.00216658
0.0028132
0.000487389
0.000877461
0.000440335
0.000190701
0.000399519
0.000663098
0.00202991
0.00168845
0.0032796
0.00200252
0.0033633
0.00273248
0.00105219
0.000604103
0.00125886
0.000473116
0.000849244
0.0024805
0.00179224
0.00233428
0.00423661
0.0027807
0.00245305
0.00162934
0.000673914
0.00168765
0.00174004
0.00109659
0.000601891
0.000533394
0.000990552
0.00118449
0.000430789
0.000786157
0.00322651
0.00221648
0.00375749
0.00239102
0.00321797
0.00376065
0.00456184
0.000288798
0.000466409
0.000571146
0.000950997
0.000294992
0.000191299
0.000902003
0.00116013
0.000762613
0.00105586
0.000801585
0.000804603
0.001375
0.000986206
0.000168875
0.000318334
0.000462607
0.00206436
0.00103026
0.000334803