/*--------------------------------*- C++ -*----------------------------------*\
| =========                 |                                                 |
| \\      /  F ield         | OpenFOAM: The Open Source CFD Toolbox           |
|  \\    /   O peration     | Version:  v2012                                 |
|   \\  /    A nd           | Website:  www.openfoam.com                      |
|    \\/     M anipulation  |                                                 |
\*---------------------------------------------------------------------------*/
FoamFile
{
    version     2.0;
    format      ascii;
    class       volScalarField;
    location    "450";
    object      he_filtered;
}
// * * * * * * * * * * * * * * * * * * * * * * * * * * * * * * * * * * * * * //

dimensions      [0 2 -2 0 0 0 0];


internalField   nonuniform List<scalar> 
65536
(
-4133.56
-4132.19
-4129.36
-4125.21
-4120.03
-4113.96
-4106.68
-4098
-4087.9
-4076.66
-4064.49
-4051.4
-4037.48
-4022.66
-4006.88
-3990.28
-3972.89
-3954.88
-3936.36
-3917.4
-3898.34
-3879.73
-3862.22
-3846.19
-3831.66
-3817.67
-3803.46
-3788.61
-3773.28
-3758.45
-3744.94
-3732.57
-3721.08
-3710.44
-3700.57
-3691.58
-3683.75
-3677.58
-3672.89
-3669.02
-3665.63
-3663.1
-3662.2
-3662.98
-3665.22
-3668.96
-3673.7
-3678.73
-3684.27
-3691.18
-3699.76
-3710.05
-3721.72
-3734.9
-3750.32
-3767.04
-3784.13
-3802
-3821.05
-3841.6
-3863.6
-3886.33
-3909.65
-3934.9
-3961.85
-3988.01
-4013.66
-4042.47
-4072.16
-4098.88
-4125.01
-4157.59
-4189.47
-4218.68
-4250.23
-4289.2
-4325.4
-4357.06
-4389.43
-4425.61
-4463.83
-4502.33
-4539.37
-4580.73
-4624.3
-4665.93
-4699.61
-4742.9
-4795.77
-4839.3
-4875.33
-4916.04
-4965.98
-5016.33
-5064.29
-5114.72
-5164.59
-5215.49
-5276.57
-5340.85
-5396.64
-5447.23
-5505.23
-5572.04
-5634.32
-5686.54
-5739.89
-5800.59
-5861.38
-5917.4
-5969.11
-6028.32
-6092.97
-6153
-6211.59
-6278.03
-6351.22
-6421.96
-6485.04
-6545.16
-6609.82
-6678.76
-6744.88
-6801.96
-6852.61
-6899.85
-6946.42
-6994.71
-7042.6
-7088.08
-7129.35
-7164.68
-7193.96
-7211.84
-7214.17
-7201.3
-7169.58
-7115.12
-7036.18
-6916.81
-6741.95
-6501.16
-6198.34
-5804.86
-5345.93
-4798.12
-4187.57
-3540.36
-2872.64
-2204.93
-1567.43
-987.193
-476.872
-42.7307
311.688
587.03
786.133
919.632
1006.9
1063.44
1101.72
1126.33
1141.19
1150.11
1153.76
1156.03
1155.7
1152.64
1148.68
1143.17
1136.57
1130.09
1125.81
1120.45
1119.32
1118.59
1119.5
1118.96
1121.08
1123.1
1125.59
1127.94
1131.01
1134.14
1136.93
1139.8
1140.58
1141.94
1142.22
1141.61
1141.62
1140.5
1139.44
1138.4
1137.6
1138.21
1138.59
1139.42
1139.28
1138.52
1134.95
1129.33
1122.51
1113.99
1107.86
1101.49
1095.52
1094.91
1092.81
1094.41
1096.7
1099.19
1101.55
1103.36
1104.23
1102.42
1100.96
1100.69
1098.64
1098.33
1094.29
1091.69
1091.82
1090.54
1089.42
1088.17
1085.27
1084.65
1080.81
1077.74
1076.34
1074.75
1074.69
1075.37
1077.34
1080.88
1082.24
1085.05
1087.15
1088.04
1089.24
1091.23
1090.07
1093.22
1095.24
1098.29
1099.24
1098.84
1099.77
1098.39
1096.84
1096.64
1095.28
1093.88
1090.9
1088.41
1086.55
1084.83
1084.39
1084.67
1084.36
1086.58
1088.21
1087.98
1086.06
1083.1
1079.28
1074.42
1068.44
1066.72
1062.48
1062.63
1062.24
1063.43
1064.81
1070.54
1072.1
1077.32
1082.31
1085.72
1086.86
1090.22
1092.71
1096.71
1101.73
1104.87
1108.47
1110.38
1110.02
1108.44
1105.27
1100.13
1097.89
1094.41
1091.62
1089.24
1087.96
1088.71
1090.32
1091.07
1092.44
1093.13
1093.13
1092.71
1089.88
1085.67
1080.47
1076.16
1072.26
1070.99
1073.09
1074.35
1076.84
1078.94
1080.55
1080.92
1081.47
1080.88
1080.88
1081.75
1085.58
1088.73
1092.23
1094.62
1095.74
1095.72
1095.12
1093.14
1091.05
1088.11
1083.85
1080.42
1079.97
1078.62
1080.18
1085.09
1088.07
1090.41
1091.39
1091.01
1088.3
1087.59
1087.84
1088.29
1091
1094.07
1096.97
1098.37
1097.06
1097.5
1095.46
1092.87
1090.08
1086.83
1085.46
1082.97
1079.38
1077.02
1076.14
1076.28
1077.31
1078.71
1078.3
1078.36
1078.92
1077.75
1075.48
1073.88
1072.66
1075.52
1079.17
1084.13
1089.74
1094.08
1097.61
1099.1
1101.65
1102.84
1104.21
1103.91
1104.1
1103.46
1101.91
1100.54
1097.59
1092.67
1086.02
1077.8
1069.34
1061.29
1051.24
1043.81
1041.26
1043.7
1044.98
1049.03
1054.23
1063.94
1074.53
1084.1
1090.38
1096.69
1099.9
1101.44
1102.29
1101.87
1101.66
1100.99
1099.15
1098.35
1095.07
1090.94
1086.89
1082.62
1080.44
1077.68
1075.87
1075.4
1074.15
1076.38
1075.87
1074.82
1072.14
1068.9
1065.98
1066.32
1066.7
1069.75
1073.99
1078.26
1081.47
1084.1
1083.62
1083.47
1082.32
1082.81
1082.37
1083.73
1083.49
1083.18
1081.65
1078.87
1076.85
1072.8
1069.86
1067.72
1066.75
1065.38
1066.92
1069.04
1069.61
1072.99
1075
1076.79
1079.5
1081.73
1084.34
1087.8
1090.07
1091.73
1093.4
1093.79
1095.22
1095.54
1094.99
1091.83
1090.4
1087.03
1084.75
1081.24
1078.98
1076.49
1075.04
1073.62
1071.99
1071
1071.92
1070.96
1072.59
1073.47
1073.55
1073.59
1071.32
1068.02
1066.33
1063.11
1060.3
1057.94
1055.63
1054.51
1052.97
1053.91
1056.39
1058.65
1061.31
1065.18
1067.32
1068.46
1069.23
1068.46
1065.76
1061.85
1059.2
1056.71
1053.68
1050.33
1047.22
1046.95
1044.68
1044.18
1043
1042.83
-4243.31
-4242.88
-4240.68
-4235.29
-4229.22
-4224.09
-4218.38
-4208.36
-4196.7
-4185.54
-4172.86
-4159.75
-4145.72
-4131.38
-4115.88
-4098.04
-4080.25
-4062.37
-4043.16
-4022.6
-4000.84
-3979.96
-3961.51
-3945.31
-3930.43
-3915.9
-3900.82
-3884.53
-3867.16
-3850.41
-3835.84
-3822.78
-3810.76
-3799.86
-3789.57
-3779.89
-3771.46
-3765.62
-3761.88
-3758.47
-3754.66
-3751.5
-3751.06
-3752.75
-3755.99
-3761.84
-3768.65
-3774.37
-3780.14
-3788.01
-3796.83
-3806.75
-3821.06
-3839.58
-3854.36
-3867.17
-3884.46
-3904.71
-3925.69
-3946.92
-3967.73
-3990.77
-4018.55
-4045.21
-4066.5
-4092.08
-4128.87
-4157.77
-4174.1
-4201.74
-4248.5
-4271.67
-4281.01
-4319.41
-4375.83
-4399.88
-4421.02
-4467.15
-4514.36
-4533.7
-4562.9
-4609.06
-4664.56
-4692.53
-4729.93
-4769.54
-4831.8
-4887.64
-4908.51
-4945.65
-4978.92
-5028.99
-5086.39
-5130.31
-5175.04
-5220.83
-5279.31
-5342.57
-5406.15
-5459.7
-5513.72
-5570.34
-5637.96
-5708.24
-5762.19
-5813.08
-5872.9
-5936.33
-5997.62
-6041.22
-6097.75
-6164.87
-6226.42
-6281.39
-6341.62
-6407.23
-6477.64
-6544.37
-6611.51
-6682.1
-6756.18
-6824.01
-6877.92
-6931.09
-6980.08
-7033.63
-7090.2
-7138.4
-7182.47
-7227.43
-7273.11
-7312.47
-7335.74
-7352.63
-7367.59
-7355.16
-7319.02
-7263.41
-7184.33
-7093.55
-6948.59
-6717.74
-6423.14
-6022.11
-5558.91
-4989
-4336.46
-3660.86
-2968.53
-2270.29
-1615.63
-1037.05
-545.581
-130.106
201.263
457.982
646.237
776.866
864.898
926.94
962.135
988.374
1005.96
1012.15
1018.15
1017.29
1013.52
1012.78
1007.04
1000.73
991.495
983.116
972.386
976.355
973.615
972.84
970.261
977.18
978.928
984.123
985.43
986.036
989.631
992.956
997.532
996.153
1001.33
1002.83
1002.96
1005.83
1000.71
1000.16
995.775
992.917
994.936
994.047
994.877
992.943
995.787
995.503
994.484
990.694
981.543
975.646
964.554
956.021
953.511
937.945
940.027
940.325
949.283
958.042
964.608
965.099
959.91
962.086
959.945
954.032
953.314
943.1
947.832
948.904
941.992
946.488
948.137
946.656
946.471
934.204
936.489
938.128
934.556
933.698
934.706
934.828
934.734
933.716
943.573
946.271
947.82
949.095
944.496
937.844
950.868
950.74
955.981
954.405
957.226
960.836
955.564
958.273
960.38
957.321
957.917
955.096
952.562
943.91
934.631
934.423
936.085
937.925
945.771
943.712
943.593
946.462
947.387
943.803
935.536
925.16
923.508
909.811
912.922
907.356
913.419
916.536
922.598
915.498
931.147
935.715
939.254
941.44
948.095
946.828
950.753
952.337
953.663
966.152
971.44
973.238
972.435
968.651
964.343
964.643
954.414
952.44
950.32
949.855
949.026
948.178
948.023
953.109
951.901
949.697
954.632
952.525
951.988
945.304
935.622
925.524
924.868
925.734
921.626
931.038
935.492
940.117
944.225
944.994
939.598
940.357
939.015
943.876
943.42
948.812
952.589
955.301
957.515
959.195
956.018
956.016
950.235
945.656
941.961
936.235
925.436
932.436
939.759
939.884
947.362
949.809
951.645
948.53
950.219
943.138
939.196
946.294
952.529
956.488
954.77
951.943
953.985
945.175
948.693
951.617
950.371
945.667
939.183
934.633
936.729
932.154
927.973
931.909
936.622
938.267
943.905
944.184
940.249
939.179
938.115
933.115
933.105
926.09
934.589
944.726
950.62
955.694
958.174
962.342
961.846
965.391
965.629
968.532
963.779
963.027
963.985
958.48
955.902
952.708
946.977
940.988
931.155
915.168
905.463
896.509
894.461
888.939
897.521
901.7
911.251
921.761
932.79
942.879
955.011
957.427
959.567
960.982
960.037
961.844
960.662
959.092
963.213
955.091
951.342
948.545
942.381
943.441
937.447
934.994
930.615
925.475
933.495
930.129
934.431
933.957
932.246
926.12
922.81
915.863
923.45
929.38
933.262
939.402
941.848
941.495
946.545
943.685
940.966
934.259
940.7
940.013
943.485
943.727
943.196
939.739
932.705
932.965
929.477
924.647
923.264
927.377
925.93
925.836
933.67
932.649
935.03
933.591
930.556
935.955
943.244
944.315
947.986
951.215
951.169
954.285
953.635
953.382
949.548
953.231
950.295
949.132
942.464
939.208
930.625
933.388
935.679
933.551
931.056
928.844
924.867
932.766
932.812
936.563
937.636
933.48
932.272
928.326
916.546
917.956
918.347
916.384
911.042
904.318
910.194
914.628
915.051
920.533
924.116
923.445
927.756
931.159
930.451
928.194
926.166
926.451
918.191
915.481
914.198
910.547
906.506
896.248
901.105
899.359
898.739
892.789
-4393.07
-4392.31
-4389.79
-4384.34
-4377.88
-4372.01
-4365.31
-4354.52
-4341.72
-4329.04
-4314.74
-4299.74
-4283.82
-4267.1
-4248.89
-4228.32
-4207.41
-4186.52
-4164.61
-4141.27
-4116.58
-4092.4
-4070.46
-4050.94
-4032.61
-4014.71
-3996.47
-3977.38
-3957.68
-3938.62
-3921.36
-3906.13
-3892.89
-3881.12
-3869.9
-3858.95
-3849.98
-3844.56
-3841.73
-3838.81
-3835.21
-3832.62
-3832.77
-3836.2
-3843.19
-3852.91
-3862.89
-3872.2
-3881.81
-3892.33
-3904.36
-3919.35
-3938.36
-3958.03
-3974.11
-3991.71
-4015.43
-4040.83
-4064.94
-4087.5
-4110.35
-4137.69
-4169.38
-4199.42
-4227.49
-4260.45
-4298.35
-4328.32
-4352.4
-4390.67
-4436.35
-4456.22
-4467.46
-4518.3
-4575.87
-4600.55
-4631.97
-4696.05
-4745.96
-4751.61
-4775.54
-4840.8
-4906.69
-4932.14
-4937.59
-4992.76
-5097.02
-5154.21
-5145.07
-5153.54
-5229.51
-5302.02
-5344.43
-5403.93
-5429.72
-5456.08
-5513.5
-5614.86
-5688.98
-5706.07
-5748.43
-5848.61
-5931.42
-5963.06
-6000.57
-6076.53
-6173.5
-6202.38
-6244.64
-6309.88
-6361.54
-6424.42
-6485.61
-6534.24
-6593.74
-6675.32
-6750.51
-6821.18
-6887.59
-6970.41
-7053.66
-7110.9
-7161.24
-7201.63
-7252.34
-7299.76
-7359.18
-7428.57
-7489.14
-7534.48
-7563.64
-7592.65
-7626.51
-7653.72
-7659.87
-7670.48
-7661.14
-7610.96
-7530.92
-7431.88
-7271.38
-7026.24
-6703.32
-6297.69
-5813.5
-5240.09
-4605.55
-3898.04
-3190.09
-2431.45
-1719.73
-1175.13
-686.608
-302.663
6.18758
239.178
409.057
528.62
606.378
649.667
692.788
713.991
722.541
731.944
728.774
730.615
738.759
735.64
729.957
715.366
702.778
692.019
681.879
675.774
683.489
685.626
685.618
681.782
691.319
692.733
696.557
702.81
705.426
705.735
700.97
714.922
717.862
715.719
717.885
710.499
718.721
713.663
712.649
709.042
705.81
707.905
705.171
708.354
710.818
714.571
712.815
703.538
694.386
677.984
669.854
666.579
651.777
658.735
651.856
656.159
664.978
673.841
670.467
670.702
675.201
666.047
663.551
668.451
661.549
663.136
658.664
655.958
660.562
661.351
667.998
667.011
656.57
654.143
653.132
648.679
645.792
647.48
643.444
647.675
647.766
651.431
652.439
662.941
667.883
663.872
660.161
658.737
651.633
663.596
664.504
676.134
674.543
669.589
677.089
672.326
667.261
671.762
671.807
669.183
662.062
657.177
651.21
654.111
655.974
657.604
651.156
662.071
667.447
664.548
660.485
652.767
644.776
640.069
626.922
627.219
620.911
624.116
629.701
632.604
620.258
627.297
628.056
647.888
656.934
659.774
650.72
652.656
657.233
667.055
678.843
679.027
687.427
693.53
695.063
688.446
677.395
666.131
671.787
670.411
664.54
659.045
657.431
661.412
667.672
663.118
665.589
671.693
667.401
675.326
668.986
664.021
651.05
633.992
639.896
640.003
647.334
642.9
652.955
658.777
654.965
656.789
661.208
652.217
649.826
647.055
660.494
668.172
671.849
674.339
675.104
670.762
673.409
663.793
662.191
659.009
652.665
640.771
644.611
638.283
637.13
650.397
653.75
662.811
663.962
663.775
650.971
650.542
647.197
654.774
660.724
665.322
673.467
676.595
665.932
667.99
666.875
662.736
655.649
650.576
645.284
647.323
635.495
640.827
648.057
648.193
648.05
649.157
641.496
642.79
652.81
651.597
647.122
643.354
630.56
642.398
646.796
657.355
670.881
676.957
674.055
672.306
678.435
681.201
680.835
677.758
684.229
675.989
664.214
671.446
667.797
660.905
651.922
636.796
627.388
621.768
600.499
574.693
585.069
600.757
606.235
616.139
622.341
632.779
650.762
660.694
659.985
665.754
675.027
674.399
672.337
671.878
674.762
676.124
660.336
668.676
665.023
653.303
649.113
640.332
646.859
644.128
639.405
640.431
638.094
651.862
648.39
642.64
634.921
634.677
626.129
632.99
634.217
637.544
643.986
648.561
659.231
663.339
654.621
652.684
645.98
644.752
644.725
658.103
660.596
658.576
651.203
650.143
647.544
635.499
631.527
632.945
632.177
629.259
636.17
640.784
638.444
648.385
649.948
649.266
647.154
654.883
654.512
661.993
659.98
656.742
661.399
662.623
668.636
669.732
670.985
659.136
655.345
653.07
654.422
645.753
641.656
642.954
642.574
646.656
647.98
644.554
642.512
638.333
644.992
641.469
643.734
651.465
645.534
635.038
633.69
633.843
637.078
632.806
626.25
621.018
621.432
623.095
633.644
634.237
639.62
643.959
647.791
650.093
650.067
646.692
639.544
624.739
628.139
626.653
624.008
621.587
613.939
614.153
608.927
612.144
606.707
606.247
-4418.8
-4417.4
-4414.14
-4408.69
-4402.16
-4395.22
-4386.77
-4374.85
-4360.83
-4346.5
-4329.98
-4312.38
-4293.87
-4273.78
-4251.77
-4227.61
-4202.83
-4178.36
-4153.62
-4127.57
-4100.2
-4072.99
-4047.71
-4025.48
-4005.03
-3985.34
-3965.73
-3945.2
-3924.03
-3903.97
-3885.65
-3869.43
-3855.71
-3843.46
-3832.07
-3818.46
-3807.01
-3803.05
-3804.25
-3802.52
-3797.49
-3793.38
-3793.21
-3798.03
-3808.53
-3822.54
-3835.61
-3847.18
-3858.34
-3869.19
-3883.57
-3905.09
-3928.92
-3948.47
-3966.91
-3993.45
-4025.04
-4054.91
-4083.54
-4108.24
-4131.47
-4163.21
-4202.69
-4241.81
-4283.65
-4321.67
-4352.56
-4394.57
-4448.54
-4490.21
-4515.64
-4552.73
-4603.37
-4637.9
-4682.7
-4741.48
-4801.98
-4856.06
-4909.4
-4953.86
-4984.54
-5035.38
-5097.05
-5148.62
-5167.07
-5244.65
-5326.07
-5361.49
-5364.44
-5409.73
-5513.92
-5582.18
-5635.1
-5699.6
-5730.65
-5744.18
-5794.62
-5917.44
-5993.39
-6013.61
-6060.56
-6179.21
-6256.94
-6303.16
-6351.06
-6423.27
-6505.28
-6544.07
-6609.73
-6666.33
-6701.66
-6772.2
-6844.93
-6890.95
-6939.58
-7002.81
-7080.22
-7156.5
-7232.83
-7325.97
-7461.64
-7515.79
-7530.72
-7557.77
-7594.95
-7666.93
-7740.99
-7820.57
-7873.87
-7919.29
-7957.9
-7987.59
-8012.79
-8045.94
-8091.87
-8114.43
-8094.68
-8026.33
-7918.58
-7760.3
-7543.03
-7252.29
-6905.49
-6475.12
-5972.48
-5395.68
-4736.55
-4033.82
-3250.31
-2503.4
-1861.32
-1333.33
-878.495
-524.806
-245.599
-37.7698
110.305
206.217
267.335
315.012
336.288
356.669
368.92
361.694
355.286
362.843
359.999
356.647
349.167
336.305
312.236
295.838
254.407
287.695
305.042
305.93
286.273
292.42
306.758
321.57
318.443
296.468
313.182
324.424
327.783
330.073
336.64
344.924
339.106
344.553
337.87
339.01
324.419
305.721
317.328
318.73
318.2
303.773
323.768
335.518
336.779
331.407
314.442
294.3
292.445
278.197
268.495
226.061
243.13
227.558
267.869
284.669
301.801
296.36
283.325
278.174
265.264
271.17
273.889
238.697
272.698
273.456
245.242
275.528
283.9
284.108
277.541
230.5
270.801
277.92
273.603
266.667
271.993
269.324
269.809
258.935
284.263
293.124
292.849
285.397
267.525
223.023
267.315
275.317
279.472
280.027
292.87
297.641
287.388
290.983
296.522
298.583
300.794
300.137
292.198
268.77
224.398
249.943
263.066
266.427
281.198
282.075
284.85
289.854
284.446
277.396
257.298
225.547
231.535
192.357
217.126
190.713
232.587
237.575
236.412
196.494
239.999
256.851
269.874
265.225
262.208
276.662
284.733
279.526
268.864
308.721
324.599
327.484
322.235
313.798
302.858
295.338
283.011
279.796
285.401
278.645
262.99
276.657
278.421
287.657
277.348
252.291
283.127
289.977
301.177
288.213
261.019
204.838
240.616
250.243
227.829
261.622
269.947
273.355
284.243
278.943
269.742
268.195
266.5
267.414
271.062
285.736
298.984
306.346
302.521
301.237
291.671
294.555
285.153
280.5
265.089
249.218
209.183
237.01
255.465
260.683
276.184
284.097
287.456
281.785
271.918
256.467
224.857
267.634
289.572
300.483
300.14
288.62
279.488
239.992
270.621
283.893
273.424
244.707
258.635
256.521
261.074
251.111
232.815
251.121
266.694
273.633
278.232
275.709
272.409
280.659
278.305
262.747
251.512
222.599
259.015
289.336
297.785
299.726
303.694
300
299.848
300.774
311.078
309.812
293.691
293.549
288.946
282.097
284.239
281.576
275.459
268.781
254.691
233.198
206.443
137.069
193.043
179.105
217.466
216.798
217.425
248.725
270.367
284.852
296.195
298.355
295.219
296.115
288.876
295.168
295.157
284.558
293.015
279.289
275.795
272.12
263.724
256.002
261.605
261.594
247.203
218.71
253.859
258.964
270.621
270.037
265.839
247.432
229.881
215.696
239.567
255.266
261.287
278.855
280.152
278.04
286.2
280.493
265.818
224.49
263.055
268.669
273.757
277.803
280.028
269.305
262.35
260.922
253.315
237.901
238.396
232.647
246.816
253.66
258.999
269.641
276.553
266.703
225.782
262.159
284.154
279.698
283.948
285.255
272.855
257.675
272.998
280.584
271.65
271.291
271.806
264.438
268.279
256.891
217.969
257.669
275.683
272.722
261.699
254.594
251.197
267.44
268.719
275.532
277.192
272.142
273.801
258.415
209.439
240.885
251.458
254.339
241.71
201.462
233.245
253.082
255.106
259.88
254.576
262.773
265.469
265.62
269.086
269.912
262.383
249.179
235.954
246.036
249.762
243.696
228.005
189.596
223.643
224.34
213.828
177.059
-4374.21
-4372.94
-4368.42
-4361.58
-4355.75
-4348.2
-4338.48
-4324.58
-4306.74
-4292.79
-4272.32
-4251.05
-4231.5
-4206.15
-4178.98
-4148.98
-4118.16
-4087.27
-4057.86
-4029.44
-3997.15
-3963.39
-3930.24
-3899.62
-3877.17
-3858.84
-3838.57
-3815.14
-3788.29
-3760.35
-3737.02
-3716.59
-3702.72
-3696.25
-3683.34
-3665.53
-3653.66
-3652.22
-3657.79
-3659.68
-3657.63
-3656.32
-3658.47
-3665.96
-3679.88
-3698.08
-3715.74
-3731.98
-3747.85
-3763.02
-3781.37
-3806.69
-3834.5
-3858.07
-3883.01
-3917.98
-3958.38
-3993.23
-4027.76
-4061.25
-4086.44
-4116.62
-4172.46
-4235.78
-4280.33
-4319.49
-4354.45
-4408.42
-4481.35
-4535.83
-4553.58
-4594.17
-4665.62
-4713.44
-4746.64
-4815.87
-4892.6
-4956.39
-5022.98
-5089.46
-5110.58
-5154.55
-5232.91
-5297.64
-5368.07
-5431.8
-5496.89
-5516.05
-5558.75
-5647.32
-5709.98
-5778.51
-5868.4
-5912.4
-5969.68
-6027.96
-6089.72
-6180.14
-6259.03
-6321.07
-6367.29
-6416.92
-6532.98
-6619.7
-6672.69
-6699.25
-6750.68
-6871.11
-6941.12
-6954.63
-7014.21
-7118.64
-7202.31
-7269.37
-7309.93
-7403.83
-7479.57
-7590.34
-7652.37
-7771.8
-7899.77
-7953.76
-7939.54
-7956.36
-8009.06
-8083.87
-8203.98
-8319.96
-8364.47
-8399.6
-8413.61
-8436.89
-8479.8
-8533.36
-8566.82
-8544.49
-8477.41
-8373.49
-8221.3
-8026.4
-7769.08
-7453.34
-7076.36
-6622.64
-6100.9
-5502.94
-4831.83
-4112.57
-3323.64
-2606.82
-2019.2
-1516.62
-1106.63
-783.529
-540.812
-367.209
-248.26
-174.992
-142.095
-141.599
-94.715
-71.5371
-72.4034
-82.5911
-122.7
-85.1018
-71.4476
-67.3571
-80.0506
-106.615
-169.845
-149.391
-207.183
-192.239
-145.377
-144.057
-190.567
-189.992
-129.771
-115.49
-126.15
-182.242
-132.291
-127.869
-169.588
-126.087
-113.101
-112.454
-110.58
-136.03
-114.67
-111.46
-124.24
-177.323
-143.588
-135.454
-147.525
-190.578
-131.897
-109.483
-99.7981
-110.575
-133.546
-203.832
-175.752
-177.432
-217.897
-263.025
-213.063
-232.452
-167.284
-144.893
-156.54
-164.084
-169.34
-187.339
-231.268
-174.743
-175.686
-223.227
-165.966
-168.403
-209.597
-163.221
-150.126
-155.571
-169.847
-223.353
-168.872
-166.451
-186.654
-177.207
-180.812
-178.901
-191.961
-227.298
-174.154
-143.699
-132.512
-144.625
-186.229
-259.177
-218.226
-184.195
-202.177
-155.909
-153.634
-171.739
-156.664
-161.563
-185.063
-156.017
-144.492
-145.735
-165.132
-172.935
-233.148
-193.551
-186.165
-189.982
-203.852
-172.167
-158.289
-157.964
-162.351
-180.214
-217.631
-271.452
-233.07
-275.175
-221.599
-262.957
-201.255
-193.303
-235.401
-285.812
-249.394
-182.456
-166.455
-175.807
-234.758
-193.778
-182.119
-171.53
-206.564
-146.408
-124.379
-112.452
-117.148
-138.67
-179.033
-202.066
-192.955
-169.405
-166.388
-183.47
-228.094
-184.446
-159.537
-162.728
-174.483
-235.438
-174.314
-142.63
-141.166
-143.467
-171.551
-236.421
-193.945
-203.651
-255.885
-209.874
-173.913
-159.15
-161.757
-162.876
-173.993
-196.068
-227.506
-242.453
-195.63
-162.594
-147.98
-142.422
-138.509
-148.649
-148.096
-168.614
-190.153
-180.122
-186.408
-232.125
-290.262
-237.328
-239.305
-197.403
-184.829
-167.054
-156.744
-169.382
-220.157
-189.64
-223.35
-172.009
-154.243
-159.161
-148.445
-151.368
-171.106
-229.996
-169.079
-164.951
-185.852
-261.897
-228.029
-206.85
-236.415
-213.27
-239.138
-189.579
-186.065
-183.835
-223.081
-228.86
-172.855
-163.546
-173.606
-188.044
-234.657
-258.261
-196.173
-166.391
-136.177
-134.081
-154.362
-184.108
-155.819
-140.91
-146.936
-150.176
-148.339
-165.808
-210.139
-170.881
-164.295
-173.437
-193.459
-239.087
-235.449
-216.781
-240.262
-295.469
-251.208
-271.028
-214.398
-205.393
-238.443
-183.013
-155.856
-156.189
-189.428
-183.817
-155.962
-161.659
-195.228
-162.195
-157.356
-160.208
-201.663
-169.526
-174.886
-209.282
-228.029
-248.647
-192.819
-185.9
-206.583
-251.085
-206.837
-183.689
-185.101
-204.236
-212.609
-205.782
-262.268
-266.481
-200.231
-190.335
-218.948
-182.915
-161.071
-160.833
-186.501
-173.101
-184.013
-235.274
-190.43
-170.913
-176.844
-173.701
-184.994
-193.028
-196.685
-215.488
-224.877
-255.072
-232.037
-269.473
-205.682
-203.869
-237.143
-180.268
-162.479
-171.384
-220.805
-174.498
-173.059
-177.791
-180.562
-193.37
-193.335
-237.691
-176.388
-167.661
-181.142
-225.935
-202.561
-229.179
-180.58
-182.675
-236.132
-182.532
-177.508
-174.035
-174.342
-184.864
-215.634
-196.477
-185.959
-204.52
-200.097
-169.633
-170.35
-191.701
-253.906
-205.535
-183.103
-179.712
-198.464
-250.946
-208.991
-218.175
-193.268
-187.13
-181.745
-195.748
-174.932
-162.664
-163.35
-171.6
-197.587
-252.279
-261.989
-209.364
-199.01
-204.535
-231.461
-280.672
-229.36
-227.433
-248.435
-332.807
-4241.71
-4240.56
-4235.35
-4228.02
-4222.86
-4215.11
-4204.49
-4189.36
-4170.22
-4156.2
-4133.53
-4110.56
-4089.37
-4060.49
-4030.34
-3997.93
-3964.92
-3931.11
-3899.15
-3869.15
-3835.57
-3800.73
-3766.72
-3735.97
-3713
-3693.57
-3672.39
-3649.08
-3623.68
-3598.53
-3577.73
-3560.58
-3548.58
-3541.4
-3530.94
-3521.53
-3517.02
-3517.54
-3521.38
-3527.84
-3535.42
-3542.95
-3551.4
-3563.13
-3579.07
-3598.34
-3619.43
-3640.86
-3663.05
-3687.32
-3713.03
-3738.17
-3763.7
-3794.22
-3830.52
-3868.28
-3906.26
-3946.24
-3984.09
-4020.56
-4060.85
-4103.25
-4150.67
-4211.3
-4274.43
-4318.72
-4360.52
-4418.4
-4486.22
-4544.65
-4586.31
-4631.42
-4691.97
-4762.43
-4817.44
-4879.36
-4954.93
-5019.71
-5094.63
-5182.04
-5238.35
-5273.57
-5321.04
-5409.78
-5506.47
-5581.12
-5620.6
-5669.81
-5754.39
-5835
-5913.22
-5988.5
-6086
-6150.22
-6194.62
-6259.63
-6337
-6431.46
-6521.09
-6566.85
-6605.68
-6683.48
-6799.94
-6860.14
-6893.35
-6948.25
-7025.61
-7139.63
-7159.8
-7223.58
-7311.98
-7420.08
-7512.74
-7572.99
-7681.66
-7813.55
-7902.73
-8005.07
-8078.25
-8210.66
-8304.71
-8342.57
-8365.05
-8397.72
-8450
-8542.64
-8687.95
-8805.61
-8867.82
-8921.63
-8943.55
-8965.67
-8995.34
-9007.2
-8976.45
-8926.25
-8838.95
-8701.03
-8514.69
-8271.69
-7969.36
-7616.35
-7205.14
-6721.4
-6180.84
-5548.23
-4882
-4114.57
-3364.83
-2739.78
-2179.37
-1738.27
-1362.12
-1085.71
-875.816
-729.681
-644.479
-609.696
-613.057
-642.355
-569.757
-545.564
-541.492
-561.259
-612.522
-575.988
-559.7
-558.899
-563.944
-587.633
-657.333
-610.125
-599.569
-650.216
-600.81
-591.639
-605.442
-654.81
-617.318
-591.274
-598.965
-637.609
-619.999
-627.407
-685.865
-640.627
-620.354
-605.612
-624.455
-667.917
-612.964
-597.858
-617.726
-652.553
-630.177
-643.278
-637.238
-682.215
-624.14
-599.48
-605.29
-616.251
-631.759
-699.502
-674.888
-665.67
-714.356
-658.495
-691.509
-645.166
-655.679
-674.782
-654.399
-689.125
-703.986
-707.846
-724.421
-675.533
-638.634
-621.142
-623.781
-624.823
-628.888
-621.744
-629.012
-666.302
-624.423
-604.679
-618.437
-643.242
-654.44
-672.258
-674.752
-658.398
-659.331
-705.522
-642.61
-620.108
-627.015
-639.987
-691.178
-638.123
-688.735
-648.879
-694.761
-673.472
-647.14
-679.711
-665.611
-663.6
-703.918
-658.499
-641.412
-631.561
-665.279
-638.975
-646.818
-709.133
-705.172
-733.068
-737.405
-675.503
-668.131
-655.801
-671.251
-670.279
-731.975
-733.457
-673.411
-651.305
-662.062
-639.095
-660.148
-695.863
-727.611
-696.574
-730.315
-687.577
-663.552
-691.248
-733.942
-702.055
-669.783
-658.362
-625.768
-608.178
-595.247
-593.62
-607.214
-629.362
-715.154
-744.983
-746.098
-689.225
-665.925
-669.716
-711.783
-665.076
-680.517
-658.405
-659.762
-693.486
-665.449
-658.278
-624.225
-628.73
-656.982
-639.538
-663.972
-669.732
-664.02
-701.199
-669.96
-683.488
-668.045
-696.42
-709.601
-695.19
-755.414
-773.168
-728.914
-658.606
-638.561
-628.943
-638.476
-666.427
-672.542
-652.512
-677.25
-654.189
-682.247
-745.348
-710.981
-732.216
-781.238
-720.398
-711.342
-680.705
-667.5
-680.505
-738.028
-670.149
-641.893
-630.117
-638.332
-667.683
-636.848
-670.538
-650.365
-635.661
-660.518
-646.228
-666.757
-733.933
-700.675
-707.881
-753.437
-695.737
-672.197
-674.89
-709.597
-681.575
-742.881
-752.944
-700.975
-663.34
-654.476
-681.58
-741.499
-697.711
-692.819
-639.437
-623.249
-622.195
-642.512
-700.441
-660.481
-665.187
-647.442
-657.939
-692.838
-679.305
-738.844
-699.785
-682.697
-692.749
-699.01
-773.812
-769.746
-719.005
-719.833
-659.011
-659.668
-657.541
-666.343
-701.17
-723.763
-660.504
-637.301
-646.985
-715.254
-712.493
-655.556
-648.074
-684.357
-645.752
-650.19
-702.725
-753.125
-706.862
-691.343
-726.901
-734.72
-749.784
-674.143
-669.331
-704.777
-691.493
-679.827
-710.311
-687.957
-734.065
-731.486
-693.224
-727.162
-676.456
-686.955
-674.309
-701.36
-665.651
-665.548
-683.732
-708.519
-652.335
-650.951
-650.16
-663.254
-692.026
-719.197
-680.368
-686.724
-723.966
-708.134
-733.047
-708.852
-742.827
-723.991
-761.399
-711.551
-730.468
-748.551
-675.873
-641.64
-626.502
-628.385
-640.814
-657.442
-705.17
-678.619
-704.315
-681.947
-718.697
-671.586
-672.318
-716.43
-739.619
-691.556
-718.595
-668.146
-663.9
-642.078
-654.859
-661.352
-675.194
-682.063
-679.13
-683.982
-663.026
-672.416
-725.189
-724.689
-670.986
-650.704
-663.333
-665.464
-709.231
-694.58
-665.95
-654.754
-657.528
-682.588
-725.853
-683.062
-677.669
-713.725
-739.23
-690.737
-695.899
-681.94
-674.5
-693.479
-758.838
-745.804
-698.456
-697.746
-682.83
-724.916
-680.125
-693.419
-741.874
-725.301
-782.38
-4118.08
-4116
-4112.32
-4107.37
-4100.9
-4092.77
-4081.61
-4068.23
-4053.04
-4035.26
-4016.29
-3993.97
-3969.56
-3943.09
-3913.72
-3883.8
-3853.43
-3821.85
-3790.51
-3760.87
-3731.37
-3701.42
-3672.82
-3647.07
-3624.71
-3604.34
-3584.53
-3565.49
-3547.17
-3530.22
-3515.61
-3503.2
-3493.84
-3487.28
-3481.31
-3476.02
-3474.98
-3479.58
-3488.29
-3499.01
-3510.42
-3521.95
-3534.57
-3549.85
-3568.59
-3590.8
-3615.41
-3640.43
-3666.02
-3693.85
-3722.87
-3751.2
-3777.75
-3810.39
-3852.24
-3895.68
-3933.33
-3972.4
-4017.13
-4060
-4102.28
-4148.1
-4197.64
-4252.93
-4313.56
-4373.38
-4426.29
-4480.64
-4542.13
-4601.24
-4652.26
-4701.74
-4762.11
-4835.61
-4909.76
-4976.05
-5045.17
-5107.66
-5181.88
-5253.49
-5333.08
-5400.3
-5455.91
-5523.84
-5596.4
-5695.89
-5785.74
-5831.26
-5918.23
-6006.59
-6063.23
-6146.43
-6253.62
-6332.51
-6389.16
-6433.85
-6509.51
-6633.89
-6730.93
-6786.74
-6834.94
-6949.13
-7040.63
-7120.17
-7168.6
-7230.6
-7322.69
-7410.07
-7453.48
-7506
-7593.39
-7726.39
-7799.4
-7904.73
-8052.96
-8165.84
-8257.81
-8303.61
-8439.99
-8582.97
-8681.45
-8737.62
-8791.8
-8831.68
-8922.25
-9035.11
-9140.01
-9186.58
-9313.18
-9395.91
-9443.76
-9461.17
-9451.32
-9422.63
-9377.63
-9291.09
-9158.81
-8982.43
-8751.36
-8465.57
-8125.66
-7743.67
-7288.55
-6790.97
-6200.61
-5571.44
-4855.82
-4109.42
-3456.83
-2865.91
-2382.66
-1975.47
-1653.72
-1417.09
-1250.48
-1145.11
-1085.47
-1067.38
-1115.15
-1093.17
-1073.19
-1056.82
-1084.84
-1092.34
-1083.94
-1104.43
-1096.1
-1083.55
-1094.79
-1095.37
-1138.55
-1080.91
-1050.92
-1055.73
-1100.61
-1105.27
-1085.74
-1086.75
-1113.25
-1086.05
-1078.05
-1084.83
-1113.35
-1117.06
-1153.69
-1175.18
-1185.75
-1169.41
-1151.2
-1174.51
-1163.84
-1122.37
-1116.49
-1144.03
-1134.38
-1146.66
-1141.24
-1188.25
-1141.9
-1139.95
-1131.98
-1163.53
-1124.45
-1098.99
-1139.01
-1130.01
-1172.89
-1114.25
-1163.17
-1114.57
-1178.82
-1227.39
-1187.33
-1195.34
-1210.57
-1168.31
-1143.53
-1181.54
-1156.11
-1101
-1110.39
-1135.44
-1116.99
-1144.06
-1153.66
-1184.76
-1150.47
-1094.88
-1114.38
-1171.12
-1162.6
-1183.16
-1175.99
-1154.71
-1176.48
-1199.54
-1159.73
-1125.46
-1118.82
-1153.6
-1190.77
-1134.1
-1118.19
-1139.17
-1124.92
-1175.54
-1134.12
-1163.99
-1185.87
-1169.81
-1203.26
-1161.61
-1174.53
-1132.43
-1121.88
-1125.41
-1138.86
-1232.97
-1253.07
-1261.47
-1191.56
-1181.32
-1214.21
-1181.95
-1175.81
-1176.93
-1205.23
-1152.47
-1164.05
-1125.6
-1153.18
-1114.9
-1144.07
-1203.87
-1173.03
-1125.36
-1138.05
-1193.28
-1156.27
-1184.51
-1147.45
-1187.09
-1191.33
-1181.6
-1122.29
-1117.75
-1141.62
-1125.13
-1149.82
-1145.04
-1186.62
-1185.39
-1240.7
-1231.38
-1185.49
-1196.97
-1166.46
-1192.75
-1223.87
-1210.36
-1156.07
-1165.78
-1210.26
-1214.34
-1154.49
-1131.75
-1160.19
-1131.45
-1183.51
-1195.66
-1164.58
-1170.46
-1170.96
-1220.84
-1210.14
-1262.66
-1249.15
-1194.55
-1230.28
-1168.77
-1209.51
-1166.22
-1177.07
-1165.73
-1154.16
-1173.09
-1209.35
-1190.19
-1172.96
-1168.7
-1186.18
-1251.7
-1221.54
-1261.66
-1282.3
-1229.49
-1219.17
-1217.15
-1176.66
-1179.57
-1230.57
-1156.41
-1117.76
-1130.66
-1155.96
-1133.24
-1140.71
-1195.35
-1188.21
-1153.71
-1202.4
-1178.46
-1185.24
-1139.66
-1171.59
-1210.11
-1220.08
-1211.66
-1160.29
-1170.75
-1219.13
-1162.05
-1145.02
-1155.93
-1222.9
-1182.72
-1196.55
-1189.36