/*--------------------------------*- C++ -*----------------------------------*\
| =========                 |                                                 |
| \\      /  F ield         | OpenFOAM: The Open Source CFD Toolbox           |
|  \\    /   O peration     | Version:  v2012                                 |
|   \\  /    A nd           | Website:  www.openfoam.com                      |
|    \\/     M anipulation  |                                                 |
\*---------------------------------------------------------------------------*/
FoamFile
{
    version     2.0;
    format      ascii;
    class       volScalarField;
    location    "450";
    object      p;
}
// * * * * * * * * * * * * * * * * * * * * * * * * * * * * * * * * * * * * * //

dimensions      [1 -1 -2 0 0 0 0];


internalField   nonuniform List<scalar> 
65536
(
157815
157815
157814
157814
157814
157814
157814
157813
157813
157812
157811
157810
157809
157808
157807
157805
157803
157801
157798
157795
157792
157789
157785
157781
157776
157771
157765
157760
157754
157747
157740
157732
157724
157715
157706
157697
157687
157676
157666
157654
157643
157631
157618
157605
157592
157578
157564
157550
157536
157522
157507
157493
157478
157463
157449
157435
157421
157407
157394
157381
157369
157356
157345
157334
157323
157313
157303
157294
157286
157279
157272
157267
157262
157258
157254
157252
157251
157251
157251
157252
157254
157256
157260
157264
157270
157274
157282
157289
157295
157303
157311
157320
157329
157338
157347
157357
157365
157377
157386
157397
157407
157417
157429
157439
157450
157459
157470
157480
157490
157499
157508
157518
157527
157537
157546
157555
157564
157572
157580
157588
157598
157608
157615
157622
157630
157635
157637
157642
157649
157655
157660
157665
157668
157670
157672
157675
157679
157682
157685
157688
157692
157696
157702
157708
157715
157722
157730
157738
157748
157755
157758
157756
157750
157742
157733
157723
157714
157704
157695
157686
157678
157671
157663
157657
157650
157644
157639
157633
157628
157623
157619
157614
157610
157607
157603
157599
157596
157593
157590
157587
157584
157581
157579
157576
157574
157572
157569
157567
157565
157563
157561
157559
157558
157556
157554
157552
157550
157548
157546
157545
157543
157541
157540
157538
157537
157536
157535
157534
157533
157532
157531
157530
157529
157528
157528
157527
157526
157525
157525
157524
157523
157522
157522
157521
157520
157519
157519
157518
157517
157516
157516
157515
157515
157514
157513
157512
157511
157511
157510
157509
157508
157507
157507
157506
157506
157505
157504
157503
157503
157502
157501
157500
157499
157499
157498
157498
157497
157497
157497
157497
157497
157497
157497
157497
157498
157498
157498
157498
157499
157499
157499
157499
157499
157499
157499
157498
157498
157497
157497
157496
157496
157496
157495
157495
157494
157494
157494
157493
157493
157493
157492
157492
157492
157492
157491
157491
157491
157491
157490
157490
157490
157490
157490
157490
157490
157489
157489
157488
157488
157488
157487
157487
157487
157486
157486
157486
157486
157485
157485
157484
157484
157483
157483
157482
157482
157481
157481
157480
157480
157479
157479
157478
157478
157477
157477
157476
157476
157475
157475
157475
157474
157474
157474
157474
157474
157474
157474
157474
157473
157473
157473
157473
157473
157472
157472
157471
157471
157470
157470
157469
157469
157468
157468
157467
157467
157466
157466
157465
157465
157464
157464
157463
157463
157463
157463
157463
157463
157463
157462
157462
157462
157462
157462
157462
157462
157462
157462
157462
157462
157462
157462
157462
157462
157461
157461
157461
157461
157460
157460
157460
157460
157460
157460
157460
157460
157460
157460
157460
157460
157460
157460
157460
157460
157460
157460
157460
157460
157459
157459
157459
157459
157459
157458
157458
157458
157458
157458
157457
157457
157456
157456
157455
157455
157455
157454
157454
157454
157454
157453
157453
157453
157453
157453
157453
157453
157453
157453
157454
157453
157453
157453
157453
157453
157453
157454
157454
157454
157454
157454
157455
157455
157455
157455
157456
157456
157456
157456
157456
157456
157457
157457
157457
157458
157458
157458
157459
157459
157459
157460
157460
157460
157460
157460
157460
157460
157461
157461
157461
157461
157461
157461
157461
157462
157462
157462
157462
157462
157462
157462
157462
157463
157463
157463
157463
157463
157463
157463
157463
157462
157462
157462
157462
156902
156902
156902
156901
156901
156901
156901
156900
156900
156899
156899
156898
156897
156895
156894
156892
156890
156888
156886
156883
156880
156877
156873
156869
156864
156859
156854
156848
156842
156835
156828
156821
156813
156804
156795
156786
156776
156765
156755
156743
156732
156720
156707
156695
156681
156668
156654
156640
156626
156612
156597
156582
156568
156553
156539
156525
156511
156497
156484
156471
156459
156446
156435
156424
156413
156402
156393
156384
156376
156368
156362
156356
156351
156347
156344
156341
156340
156339
156339
156341
156342
156345
156348
156352
156357
156361
156368
156375
156381
156388
156397
156406
156416
156425
156433
156443
156450
156460
156471
156480
156489
156499
156512
156522
156532
156541
156552
156563
156572
156581
156590
156601
156609
156619
156628
156636
156646
156653
156660
156667
156678
156687
156694
156701
156707
156711
156713
156719
156728
156734
156738
156742
156745
156747
156749
156753
156757
156761
156764
156767
156771
156776
156782
156790
156798
156806
156815
156825
156836
156845
156849
156849
156845
156839
156831
156823
156814
156805
156797
156789
156781
156774
156767
156760
156754
156748
156742
156737
156732
156727
156723
156719
156715
156711
156707
156704
156700
156697
156694
156691
156688
156686
156683
156681
156679
156676
156674
156672
156670
156668
156666
156664
156662
156661
156659
156657
156655
156653
156651
156649
156648
156646
156645
156643
156642
156641
156640
156638
156637
156637
156636
156635
156634
156633
156632
156632
156631
156630
156629
156629
156628
156627
156627
156626
156625
156624
156624
156623
156622
156621
156621
156620
156619
156619
156618
156617
156616
156615
156614
156614
156613
156612
156612
156611
156610
156610
156609
156608
156608
156607
156606
156605
156604
156604
156603
156603
156602
156602
156602
156602
156602
156602
156602
156602
156603
156603
156603
156603
156604
156604
156604
156604
156604
156604
156603
156603
156603
156602
156602
156601
156601
156601
156600
156600
156599
156599
156599
156598
156598
156598
156598
156597
156597
156596
156596
156596
156596
156596
156595
156595
156595
156595
156595
156595
156595
156594
156594
156593
156593
156593
156592
156592
156592
156591
156591
156591
156591
156590
156590
156589
156589
156588
156588
156587
156587
156586
156586
156585
156585
156584
156584
156583
156583
156582
156582
156581
156581
156580
156580
156580
156580
156579
156579
156579
156579
156579
156579
156579
156579
156578
156578
156578
156578
156577
156577
156576
156576
156575
156575
156574
156574
156573
156573
156572
156572
156571
156571
156570
156570
156569
156569
156569
156568
156568
156568
156568
156568
156568
156568
156567
156567
156567
156567
156567
156567
156567
156567
156567
156567
156567
156567
156567
156567
156566
156566
156566
156566
156566
156565
156565
156565
156565
156565
156565
156565
156565
156565
156565
156565
156565
156565
156565
156565
156565
156565
156565
156565
156565
156564
156564
156564
156564
156564
156563
156563
156563
156563
156562
156562
156562
156561
156561
156560
156560
156559
156559
156559
156559
156559
156559
156559
156559
156559
156559
156559
156559
156559
156559
156559
156559
156559
156559
156559
156559
156559
156559
156560
156560
156560
156560
156560
156561
156561
156561
156561
156561
156561
156561
156562
156562
156562
156562
156563
156563
156563
156564
156564
156564
156565
156565
156565
156565
156565
156565
156566
156566
156566
156566
156566
156566
156566
156567
156567
156567
156567
156567
156567
156567
156567
156567
156568
156568
156568
156568
156568
156568
156568
156567
156567
156567
156567
156567
155993
155993
155993
155993
155993
155993
155992
155992
155992
155991
155990
155990
155989
155987
155986
155985
155983
155981
155978
155975
155972
155969
155965
155961
155957
155952
155947
155941
155935
155929
155922
155914
155906
155898
155889
155879
155869
155859
155848
155837
155825
155814
155801
155788
155775
155762
155748
155734
155720
155706
155691
155677
155662
155648
155633
155619
155605
155592
155578
155565
155553
155541
155529
155518
155507
155496
155487
155478
155469
155462
155455
155449
155445
155440
155437
155434
155433
155432
155432
155433
155435
155437
155441
155445
155450
155454
155460
155467
155473
155481
155488
155498
155507
155516
155526
155535
155544
155554
155564
155575
155583
155592
155604
155614
155624
155633
155643
155653
155663
155671
155680
155690
155698
155707
155716
155724
155733
155739
155745
155753
155763
155773
155780
155786
155791
155792
155796
155803
155812
155818
155822
155825
155827
155829
155832
155836
155840
155844
155847
155850
155854
155859
155866
155875
155884
155893
155903
155914
155926
155935
155940
155942
155941
155936
155931
155924
155916
155909
155902
155894
155887
155880
155874
155867
155861
155856
155850
155845
155840
155835
155831
155827
155823
155819
155815
155812
155809
155806
155803
155800
155797
155795
155792
155790
155788
155785
155783
155781
155779
155777
155775
155773
155771
155770
155768
155766
155764
155762
155761
155759
155757
155756
155754
155753
155751
155750
155749
155748
155747
155746
155745
155744
155743
155743
155742
155741
155740
155739
155739
155738
155737
155737
155736
155735
155734
155733
155733
155732
155731
155731
155730
155729
155728
155728
155727
155726
155725
155725
155724
155723
155722
155721
155721
155720
155720
155719
155718
155718
155717
155716
155715
155714
155714
155713
155713
155712
155712
155712
155711
155711
155711
155711
155712
155712
155712
155712
155713
155713
155713
155713
155713
155713
155713
155713
155713
155713
155712
155712
155711
155711
155711
155710
155710
155709
155709
155708
155708
155708
155707
155707
155707
155707
155706
155706
155706
155705
155705
155705
155705
155705
155705
155705
155705
155704
155704
155704
155703
155703
155702
155702
155702
155701
155701
155701
155701
155700
155700
155699
155699
155698
155698
155698
155697
155697
155697
155696
155696
155695
155695
155694
155693
155693
155692
155692
155691
155691
155691
155690
155690
155690
155690
155689
155689
155689
155688
155688
155688
155688
155688
155688
155688
155687
155687
155687
155686
155686
155685
155685
155684
155684
155684
155683
155683
155682
155682
155681
155681
155680
155680
155679
155679
155678
155678
155678
155678
155678
155678
155678
155677
155677
155677
155677
155677
155677
155677
155677
155677
155677
155677
155677
155677
155676
155676
155676
155676
155676
155676
155675
155675
155675
155675
155675
155675
155675
155675
155675
155675
155675
155675
155675
155675
155675
155675
155675
155675
155674
155674
155674
155674
155674
155674
155674
155674
155673
155673
155673
155673
155672
155672
155671
155671
155670
155670
155669
155669
155669
155669
155668
155668
155668
155668
155668
155668
155668
155668
155668
155668
155669
155669
155669
155669
155669
155669
155669
155669
155669
155669
155670
155670
155670
155670
155671
155671
155671
155671
155671
155671
155671
155671
155672
155672
155672
155672
155672
155673
155673
155674
155674
155674
155674
155675
155675
155675
155675
155675
155675
155675
155675
155676
155676
155676
155676
155676
155676
155676
155676
155677
155677
155677
155677
155677
155677
155677
155677
155677
155677
155677
155677
155677
155677
155677
155677
155090
155090
155090
155090
155089
155089
155089
155088
155088
155087
155087
155086
155085
155084
155083
155081
155080
155078
155075
155073
155070
155066
155063
155059
155055
155050
155045
155039
155033
155027
155020
155012
155004
154996
154987
154977
154968
154957
154947
154935
154924
154912
154900
154887
154874
154860
154847
154833
154818
154804
154790
154775
154761
154746
154732
154718
154704
154690
154677
154664
154651
154639
154627
154616
154605
154594
154584
154575
154567
154559
154552
154546
154542
154537
154533
154531
154529
154528
154529
154530
154531
154533
154537
154541
154545
154551
154556
154563
154570
154578
154585
154593
154602
154611
154619
154628
154637
154648
154658
154668
154677
154687
154698
154707
154717
154726
154735
154745
154755
154763
154772
154781
154789
154798
154807
154816
154824
154830
154836
154844
154854
154861
154869
154875
154880
154883
154886
154893
154901
154906
154910
154913
154915
154917
154920
154924
154928
154931
154934
154937
154941
154946
154954
154963
154974
154984
154995
155006
155019
155029
155035
155039
155039
155037
155033
155028
155022
155015
155009
155002
154996
154990
154984
154978
154972
154966
154961
154956
154952
154947
154943
154938
154935
154931
154928
154924
154921
154918
154916
154913
154910
154908
154905
154903
154900
154898
154896
154894
154892
154890
154888
154886
154884
154883
154881
154879
154877
154876
154874
154872
154871
154869
154868
154866
154864
154863
154863
154861
154860
154859
154858
154857
154857
154856
154855
154854
154854
154853
154852
154851
154850
154850
154849
154849
154848
154847
154846
154845
154845
154844
154843
154842
154842
154841
154840
154839
154838
154838
154837
154836
154836
154835
154834
154834
154833
154833
154832
154831
154831
154830
154829
154828
154828
154827
154827
154826
154826
154826
154825
154825
154825
154825
154825
154826
154826
154826
154826
154826
154826
154826
154826
154826
154826
154826
154826
154826
154825
154825
154825
154824
154824
154823
154823
154823
154822
154822
154822
154821
154821
154821
154821
154820
154820
154820
154819
154819
154819
154819
154819
154818
154818
154819
154818
154818
154817
154817
154817
154816
154816
154816
154815
154815
154815
154814
154814
154813
154813
154813
154813
154812
154812
154812
154811
154811
154810
154810
154809
154809
154808
154808
154807
154807
154806
154806
154805
154805
154804
154804
154803
154803
154803
154803
154803
154802
154802
154802
154802
154802
154801
154801
154801
154801
154801
154800
154800
154799
154799
154798
154798
154797
154797
154796
154796
154795
154795
154794
154794
154794
154794
154793
154793
154793
154792
154792
154792
154792
154792
154791
154791
154791
154791
154791
154790
154790
154790
154790
154790
154790
154790
154790
154790
154790
154790
154789
154789
154789
154789
154789
154789
154789
154788
154788
154788
154788
154788
154788
154789
154788
154788
154788
154789
154788
154789
154788
154788
154788
154788
154788
154788
154788
154788
154787
154787
154787
154787
154786
154786
154785
154785
154784
154784
154784
154783
154783
154783
154783
154782
154782
154782
154782
154782
154782
154782
154782
154782
154782
154782
154783
154782
154782
154782
154783
154783
154783
154783
154784
154784
154784
154784
154784
154785
154785
154785
154785
154785
154785
154785
154785
154785
154785
154785
154785
154785
154786
154786
154787
154787
154787
154788
154788
154788
154788
154788
154788
154789
154789
154789
154789
154789
154789
154789
154790
154790
154790
154790
154790
154790
154790
154790
154790
154790
154790
154791
154790
154790
154790
154790
154790
154790
154790
154790
154790
154191
154191
154191
154191
154191
154191
154190
154190
154189
154189
154188
154188
154187
154186
154185
154183
154182
154180
154177
154175
154172
154169
154166
154162
154158
154153
154148
154142
154136
154130
154123
154115
154107
154099
154090
154081
154071
154060
154050
154039
154027
154015
154003
153990
153977
153964
153950
153936
153922
153907
153893
153878
153864
153850
153835
153821
153807
153794
153780
153767
153754
153742
153730
153719
153707
153696
153686
153677
153669
153661
153654
153648
153643
153638
153634
153632
153630
153629
153629
153630
153631
153633
153637
153641
153646
153651
153657
153663
153671
153678
153685
153693
153703
153711
153719
153728
153739
153749
153757
153766
153776
153786
153796
153806
153814
153824
153833
153843
153852
153860
153870
153878
153887
153896
153904
153913
153921
153928
153935
153943
153950
153956
153962
153969
153974
153979
153983
153988
153995
153999
154002
154005
154008
154011
154013
154016
154019
154022
154025
154027
154031
154036
154045
154055
154066
154078
154089
154102
154115
154126
154134
154139
154140
154140
154138
154134
154130
154125
154120
154114
154108
154102
154097
154091
154086
154081
154075
154070
154066
154062
154058
154054
154050
154046
154043
154040
154037
154035
154031
154029
154026
154024
154021
154019
154018
154015
154013
154011
154009
154007
154004
154003
154001
154000
153998
153997
153995
153993
153991
153989
153988
153986
153985
153983
153982
153981
153980
153978
153977
153976
153975
153975
153974
153973
153972
153972
153971
153970
153969
153969
153968
153967
153966
153965
153964
153964
153963
153962
153962
153961
153961
153960
153959
153958
153957
153956
153956
153955
153954
153953
153952
153952
153951
153950
153950
153949
153949
153948
153948
153947
153946
153946
153945
153945
153944
153944
153943
153943
153943
153943
153943
153943
153943
153943
153943
153944
153944
153944
153944
153943
153943
153944
153943
153943
153943
153943
153943
153942
153942
153942
153941
153941
153941
153940
153940
153940
153939
153939
153938
153938
153938
153938
153937
153937
153937
153936
153936
153935
153936
153936
153936
153936
153935
153935
153935
153934
153934
153934
153933
153934
153933
153933
153932
153932
153931
153931
153931
153930
153930
153929
153929
153929
153929
153928
153928
153927
153927
153926
153926
153925
153924
153924
153923
153923
153922
153922
153922
153922
153922
153921
153921
153920
153920
153919
153919
153919
153919
153919
153919
153919
153918
153918
153918
153917
153917
153917
153917
153916
153915
153915
153914
153914
153914
153913
153913
153912
153912
153912
153911
153911
153911
153911
153911
153910
153910
153910
153909
153909
153909
153909
153908
153908
153909
153908
153908
153908
153908
153907
153908
153907
153907
153907
153907
153907
153907
153907
153906
153906
153906
153906
153906
153906
153906
153906
153906
153906
153906
153906
153906
153906
153906
153906
153906
153905
153905
153905
153905
153905
153905
153905
153905
153905
153905
153905
153905
153904
153904
153903
153903
153902
153902
153901
153901
153900
153900
153900
153900
153900
153900
153900
153900
153900
153900
153900
153900
153900
153900
153900
153900
153901
153900
153901
153901
153901
153901
153901
153902
153902
153902
153902
153902
153903
153902
153903
153903
153903
153903
153903
153902
153902
153902
153902
153903
153903
153903
153904
153904
153905
153905
153905
153906
153906
153906
153906
153906
153907
153907
153906
153906
153906
153907
153907
153907
153907
153907
153907
153907
153907
153907
153908
153908
153908
153908
153908
153908
153907
153907
153907
153907
153907
153907
153907
153298
153298
153298
153298
153297
153297
153297
153297
153296
153296
153295
153295
153294
153293
153292
153290
153289
153287
153285
153282
153280
153277
153273
153270
153266
153261
153256
153251
153245
153238
153231
153223
153216
153207
153198
153189
153179
153169
153158
153147
153135
153123
153111
153098
153085
153072
153058
153044
153030
153015
153001
152986
152972
152958
152943
152929
152915
152901
152888
152875
152861
152849
152837
152825
152814
152803
152793
152783
152775
152767
152759
152754
152748
152743
152740
152737
152734
152733
152733
152734
152734
152737
152741
152745
152748
152754
152760
152766
152773
152780
152788
152796
152805
152813
152821
152830
152840
152850
152859
152868
152878
152888
152897
152906
152916
152926
152935
152944
152953
152962
152972
152979
152988
152996
153005
153013
153020
153027
153035
153041
153049
153056
153061
153066
153071
153076
153079
153086
153091
153095
153098
153101
153103
153106
153108
153111
153114
153117
153120
153123
153126
153131
153141
153151
153163
153175
153189
153203
153216
153228
153236
153243
153246
153247
153246
153244
153241
153237
153233
153227
153223
153218
153213
153208
153203
153198
153193
153189
153185
153181
153176
153173
153169
153166
153162
153160
153157
153154
153151
153149
153146
153144
153141
153139
153138
153135
153133
153131
153129
153127
153125
153123
153121
153120
153118
153117
153115
153113
153112
153110
153109
153108
153106
153105
153103
153102
153101
153099
153098
153097
153096
153095
153095
153094
153093
153092
153092
153091
153090
153089
153088
153088
153087
153086
153085
153084
153084
153083
153082
153081
153081
153080
153079
153078
153078
153077
153076
153076
153075
153075
153073
153072
153072
153071
153071
153070
153069
153069
153068
153068
153067
153066
153066
153066
153066
153065
153065
153065
153065
153065
153065
153065
153064
153065
153065
153065
153065
153065
153065
153064
153064
153064
153064
153064
153064
153063
153063
153063
153063
153062
153062
153062
153061
153061
153060
153060
153060
153060
153059
153059
153059
153059
153058
153058
153057
153057
153057
153056
153057
153056
153056
153056
153056
153056
153056
153055
153055
153054
153055
153054
153055
153055
153054
153053
153053
153052
153051
153050
153050
153051
153050
153050
153050
153049
153049
153048
153048
153047
153047
153046
153046
153045
153044
153044
153044
153044
153043
153043
153043
153042
153042
153042
153041
153041
153040
153040
153040
153040
153039
153039
153039
153039
153039
153038
153038
153038
153038
153036
153036
153036
153035
153035
153034
153034
153034
153033
153033
153033
153033
153033
153033
153032
153032
153032
153032
153032
153031
153031
153030
153030
153030
153030
153030
153029
153029
153029
153029
153028
153029
153028
153028
153028
153028
153028
153028
153028
153029
153028
153028
153028
153027
153028
153028
153028
153027
153028
153027
153028
153027
153028
153027
153027
153026
153027
153027
153026
153027
153026
153026
153026
153026
153026
153026
153026
153026
153025
153025
153024
153024
153023
153022
153022
153021
153021
153021
153022
153021
153021
153021
153021
153021
153021
153021
153021
153021
153021
153021
153022
153022
153022
153022
153022
153022
153023
153022
153024
153023
153023
153023
153024
153024
153024
153025
153025
153024
153024
153024
153024
153023
153023
153023
153024
153024
153024
153025
153025
153025
153026
153026
153026
153026
153026
153027
153027
153027
153028
153028
153028
153027
153028
153028
153028
153027
153028
153028
153029
153029
153029
153029
153029
153029
153029
153029
153029
153029
153028
153028
153028
153028
153028
153028
153028
152410
152410
152410
152409
152409
152409
152409
152408
152408
152408
152407
152407
152406
152405
152404
152403
152401
152400
152398
152395
152393
152390
152386
152383
152379
152374
152369
152364
152358
152351
152344
152337
152329
152320
152312
152302
152292
152282
152271
152260
152249
152237
152224
152211
152198
152185
152171
152157
152142
152128
152113
152099
152084
152070
152056
152042
152028
152014
152000
151987
151973
151960
151948
151936
151925
151914
151903
151894
151885
151877
151869
151863
151857
151852
151848
151846
151843
151841
151842
151843
151844
151845
151849
151853
151856
151861
151868
151874
151879
151887
151897
151905
151913
151921
151930
151940
151950
151958
151967
151975
151987
151996
152004
152013
152023
152033
152040
152049
152059
152068
152077
152084
152093
152102
152110
152117
152124
152132
152139
152146
152153
152159
152165
152170
152175
152180
152185
152189
152193
152196
152199
152201
152204
152206
152208
152211
152214
152217
152221
152224
152228
152234
152243
152253
152265
152279
152293
152308
152322
152334
152343
152350
152354
152357
152357
152357
152355
152352
152349
152344
152340
152336
152332
152327
152322
152318
152314
152310
152306
152302
152298
152295
152291
152288
152285
152282
152280
152276
152275
152272
152269
152266
152264
152262
152260
152258
152256
152254
152251
152250
152248
152247
152245
152243
152241
152240
152238
152237
152235
152234
152232
152232
152230
152229
152228
152226
152225
152224
152223
152222
152221
152220
152219
152217
152217
152216
152216
152215
152214
152213
152212
152212
152211
152210
152209
152208
152208
152207
152207
152206
152206
152204
152204
152203
152202
152201
152200
152199
152199
152198
152198
152197
152196
152196
152195
152195
152194
152194
152193
152192
152192
152191
152191
152191
152190
152190
152190
152190
152190
152190
152190
152190
152190
152190
152189
152190
152190
152189
152189
152189
152189
152188
152188
152188
152187
152187
152187
152187
152186
152186
152186
152186
152185
152184
152185
152185
152185
152184
152184
152183
152183
152182
152183
152182
152181
152181
152180
152181
152181
152181
152181
152180
152180
152180
152180
152180
152180
152179
152180
152180
152180
152179
152179
152178
152177
152177
152176
152176
152176
152175
152175
152174
152174
152173
152172
152172
152171
152171
152171
152171
152170
152170
152169
152169
152169
152168
152167
152167
152166
152166
152166
152166
152166
152166
152166
152165
152165
152164
152164
152163
152163
152163
152163
152162
152162
152162
152161
152161
152161
152160
152160
152159
152158
152157
152158
152158
152158
152157
152158
152158
152158
152157
152157
152157
152157
152157
152156
152156
152155
152155
152156
152155
152154
152154
152154
152153
152153
152153
152153
152153
152153
152153
152153
152153
152153
152153
152153
152153
152153
152153
152153
152153
152153
152153
152152
152153
152153
152153
152152
152152
152152
152152
152153
152151
152152
152152
152151
152151
152151
152151
152151
152150
152151
152150
152150
152150
152149
152148
152148
152147
152147
152146
152146
152147
152147
152146
152146
152146
152146
152146
152146
152146
152146
152146
152146
152146
152146
152146
152146
152146
152146
152147
152147
152147
152147
152147
152148
152148
152149
152148
152149
152148
152149
152148
152148
152148
152148
152148
152148
152148
152147
152148
152149
152149
152150
152150
152149
152150
152150
152150
152150
152151
152151
152152
152152
152152
152152
152152
152152
152153
152152
152152
152153
152153
152153
152154
152153
152154
152153
152154
152153
152153
152153
152152
152152
152153
152153
152153
152153
152153
152153
152153
151527
151527
151527
151526
151526
151526
151526
151525
151525
151525
151524
151524
151523
151522
151521
151520
151519
151517
151515
151513
151510
151508
151504
151501
151497
151492
151487
151482
151476
151469
151462
151455
151447
151438
151429
151420
151410
151400
151389
151378
151366
151354
151342
151329
151315
151302
151288
151274
151259
151245
151230
151215
151201
151186
151172
151158
151144
151130
151116
151102
151089
151076
151063
151051
151039
151028
151017
151008
150999
150991
150983
150976
150971
150965
150961
150958
150955
150954
150953
150954
150955
150956
150959
150962
150965
150970
150978
150983
150989
150998
151008
151015
151023
151032
151041
151051
151061
151068
151077
151086
151097
151105
151113
151123
151132
151141
151149
151158
151168
151177
151185
151193
151203
151211
151218
151226
151233
151241
151247
151254
151260
151266
151271
151276
151280
151284
151290
151294
151297
151301
151303
151305
151307
151309
151311
151314
151317
151321
151326
151330
151335
151341
151350
151360
151373
151387
151403
151418
151432
151445
151454
151462
151468
151471
151473
151472
151472
151471
151468
151465
151461
151457
151454
151449
151445
151442
151438
151434
151431
151427
151423
151420
151417
151414
151411
151408
151405
151402
151401
151398
151395
151393
151391
151388
151386
151385
151382
151381
151378
151377
151375
151373
151371
151369
151368
151367
151365
151364
151363
151361
151360
151359
151357
151357
151356
151354
151353
151351
151350
151349
151349
151348
151347
151346
151345
151345
151344
151343
151342
151342
151341
151339
151338
151338
151337
151336
151335
151335
151335
151334
151333
151332
151331
151330
151330
151328
151328
151327
151327
151326
151325
151325
151325
151324
151323
151323
151322
151321
151321
151321
151320
151320
151319
151319
151319
151319
151319
151319
151319
151319
151319
151318
151318
151318
151318
151318
151318
151318
151318
151318
151317
151318
151317
151317
151316
151315
151315
151315
151314
151314
151313
151314
151313
151313
151312
151312
151312
151312
151311
151311
151310
151310
151310
151310
151310
151309
151308
151309
151308
151309
151309
151308
151308
151308
151308
151308
151307
151307
151307
151308
151307
151306
151306
151305
151305
151305
151304
151305
151304
151303
151302
151302
151301
151301
151301
151301
151300
151299
151299
151298
151298
151298
151297
151297
151296
151296
151296
151296
151295
151295
151295
151294
151294
151294
151294
151293
151292
151292
151292
151292
151291
151291
151290
151289
151289
151289
151289
151289
151289
151288
151287
151287
151286
151286
151286
151287
151287
151287
151287
151287
151287
151287
151286
151286
151286
151285
151284
151284
151284
151283
151283
151282
151282
151283
151282
151282
151282
151282
151282
151281
151281
151281
151281
151281
151281
151281
151280
151281
151281
151282
151283
151282
151282
151281
151281
151280
151280
151280
151281
151280
151280
151280
151280
151280
151279
151279
151279
151279
151279
151279
151279
151279
151279
151278
151278
151278
151277
151277
151276
151276
151276
151275
151276
151275
151275
151274
151274
151274
151274
151274
151275
151275
151275
151275
151275
151275
151275
151274
151275
151274
151275
151275
151275
151275
151276
151276
151276
151276
151276
151276
151276
151276
151277
151275
151276
151277
151277
151276
151277
151276
151276
151277
151277
151278
151278
151278
151278
151277
151278
151279
151278
151279
151280
151280
151280
151280
151280
151280
151280
151280
151281
151281
151281
151281
151281
151280
151281
151282
151282
151282
151281
151281
151281
151281
151281
151281
151281
151280
151281
151281
151281
151281
150648
150648
150648
150648
150648
150648
150648
150647
150647
150647
150646
150646
150645
150645
150644
150643
150641
150640
150638
150635
150633
150630
150627
150623
150620
150615
150610
150605
150599
150592
150585
150578
150569
150561
150552
150542
150532
150522
150511
150500
150488
150476
150463
150450
150437
150423
150409
150395
150380
150366
150351
150336
150322
150307
150293
150279
150264
150250
150236
150222
150208
150195
150182
150170
150158
150146
150136