/*--------------------------------*- C++ -*----------------------------------*\
| =========                 |                                                 |
| \\      /  F ield         | OpenFOAM: The Open Source CFD Toolbox           |
|  \\    /   O peration     | Version:  v2012                                 |
|   \\  /    A nd           | Website:  www.openfoam.com                      |
|    \\/     M anipulation  |                                                 |
\*---------------------------------------------------------------------------*/
FoamFile
{
    version     2.0;
    format      ascii;
    class       volScalarField;
    location    "450";
    object      p_rgh;
}
// * * * * * * * * * * * * * * * * * * * * * * * * * * * * * * * * * * * * * //

dimensions      [1 -1 -2 0 0 0 0];


internalField   nonuniform List<scalar> 
65536
(
58272.1
58272.1
58272
58271.9
58271.7
58271.4
58271
58270.6
58270.2
58269.5
58268.8
58267.9
58266.8
58265.5
58263.9
58262.2
58260.1
58257.8
58255.2
58252.4
58249.3
58245.8
58242
58237.6
58232.9
58227.8
58222.3
58216.5
58210.4
58203.7
58196.5
58188.8
58180.7
58172
58163
58153.4
58143.5
58132.9
58121.9
58110.6
58098.9
58086.8
58074.3
58061.4
58048.1
58034.5
58020.6
58006.6
57992.3
57977.9
57963.4
57948.7
57934
57919.3
57904.9
57890.8
57876.7
57863
57849.7
57836.9
57824.5
57812.3
57800.6
57789.4
57778.8
57768.5
57759
57750.3
57742.1
57734.7
57728.1
57722.7
57717.9
57713.6
57710.6
57708.6
57707.1
57706.8
57707.2
57708.7
57710.2
57713
57716.7
57720.4
57726.4
57731
57738.5
57745.7
57752.2
57759.9
57768.6
57777.3
57786.9
57795.6
57804.5
57815.1
57823.2
57834.5
57844
57855.4
57865
57875.8
57887.7
57897.5
57908.5
57918.1
57929.5
57938.9
57949
57958.6
57967.6
57977.7
57986.9
57996.5
58005.6
58014.9
58024
58032.7
58041
58048.8
58059.2
58068.5
58075.6
58083.4
58091.2
58096
58098.6
58103.7
58111.1
58116.7
58121.7
58126.5
58129.7
58131.5
58133.6
58136.8
58140.5
58143.9
58146.8
58149.9
58153.2
58157.1
58162.3
58167.9
58174.6
58180.4
58187
58194.9
58203.2
58209.6
58211.2
58208.4
58202.1
58193.4
58183.7
58173.5
58163.4
58153.6
58144.4
58135.7
58127.5
58119.8
58112.5
58105.7
58099.4
58093.3
58087.6
58082.1
58077.1
58072.2
58067.8
58063.4
58059.4
58055.4
58051.8
58048.2
58044.9
58041.6
58038.6
58035.6
58032.9
58030.2
58027.6
58025.1
58022.7
58020.4
58018.2
58016.1
58014
58012.1
58010.1
58008.3
58006.4
58004.6
58002.7
58000.8
57998.8
57996.9
57995
57993.2
57991.6
57990
57988.6
57987.2
57986
57984.7
57983.5
57982.4
57981.3
57980.4
57979.5
57978.7
57977.8
57977
57976.2
57975.5
57974.8
57974
57973.3
57972.6
57971.9
57971.2
57970.5
57969.7
57969
57968.2
57967.5
57966.7
57966
57965.2
57964.6
57963.9
57963.3
57962.5
57961.8
57961
57960.2
57959.4
57958.4
57957.6
57956.8
57956.1
57955.5
57954.8
57954.3
57953.6
57952.9
57952.1
57951.3
57950.4
57949.6
57948.8
57948.1
57947.3
57946.8
57946.2
57945.9
57945.5
57945.4
57945.3
57945.4
57945.5
57945.7
57945.9
57946.3
57946.6
57946.9
57947.1
57947.3
57947.5
57947.6
57947.6
57947.6
57947.5
57947.3
57947
57946.5
57946
57945.5
57945.1
57944.6
57944.2
57943.7
57943.3
57942.9
57942.5
57942.2
57941.9
57941.6
57941.4
57941.1
57940.8
57940.5
57940.1
57939.9
57939.6
57939.4
57939.2
57939.1
57939
57939
57938.9
57938.7
57938.5
57938.2
57937.9
57937.5
57937.1
57936.7
57936.2
57935.9
57935.6
57935.4
57935.1
57934.9
57934.6
57934.3
57933.8
57933.4
57932.9
57932.4
57931.9
57931.4
57930.8
57930.4
57929.8
57929.3
57928.8
57928.3
57927.7
57927.2
57926.7
57926.2
57925.7
57925.2
57924.8
57924.3
57923.9
57923.6
57923.2
57923
57922.8
57922.6
57922.4
57922.3
57922.2
57922.1
57922.1
57922
57921.9
57921.7
57921.4
57921.1
57920.8
57920.4
57919.9
57919.6
57919
57918.6
57918
57917.5
57916.9
57916.4
57915.8
57915.3
57914.8
57914.2
57913.7
57913.2
57912.7
57912.2
57911.8
57911.5
57911.4
57911.2
57911.2
57911.1
57911.1
57910.9
57910.8
57910.6
57910.6
57910.4
57910.5
57910.5
57910.7
57910.7
57910.7
57910.7
57910.6
57910.6
57910.5
57910.3
57910.1
57909.8
57909.5
57909.3
57909
57908.9
57908.6
57908.6
57908.5
57908.5
57908.5
57908.5
57908.5
57908.5
57908.5
57908.7
57908.7
57908.8
57908.7
57908.7
57908.4
57908.3
57908.2
57908.1
57908
57907.9
57907.7
57907.5
57907.3
57907.1
57906.9
57906.6
57906.4
57906.2
57905.8
57905.4
57904.9
57904.5
57904
57903.5
57903.2
57902.8
57902.6
57902.3
57902.1
57901.9
57901.9
57901.7
57901.8
57901.7
57901.8
57901.9
57902.1
57902.1
57902.2
57902.1
57902
57902
57902
57901.9
57902.1
57902.2
57902.4
57902.5
57902.8
57903
57903.3
57903.5
57903.9
57904
57904.2
57904.4
57904.5
57904.7
57904.8
57905
57905.2
57905.5
57905.7
57906.1
57906.4
57906.9
57907.2
57907.6
57907.9
57908.1
57908.2
57908.4
57908.5
57908.7
57908.8
57909.1
57909.2
57909.5
57909.6
57909.8
57909.9
57910
57910.1
57910.2
57910.2
57910.4
57910.4
57910.6
57910.7
57910.9
57911
57911.2
57911.3
57911.4
57911.4
57911.5
57911.4
57911.2
57911.2
57911.1
57911
57911
57911
58266.9
58266.9
58266.8
58266.6
58266.4
58266.1
58265.8
58265.4
58264.9
58264.2
58263.5
58262.6
58261.5
58260.1
58258.6
58256.9
58254.9
58252.6
58250
58247.1
58243.9
58240.4
58236.6
58232.2
58227.6
58222.5
58217.1
58211.3
58205
58198.3
58191.1
58183.4
58175.3
58166.6
58157.5
58147.9
58137.9
58127.3
58116.4
58105
58093.3
58081.2
58068.7
58055.8
58042.5
58028.9
58015
58001
57986.7
57972.3
57957.7
57942.9
57928.3
57913.8
57899.4
57885.1
57871
57857.3
57844
57831.2
57818.7
57806.6
57795
57783.8
57772.9
57762.7
57753.2
57744.4
57736.1
57728.6
57722.1
57716.5
57711.6
57707.3
57704.6
57702.5
57700.8
57700.5
57701.1
57702.6
57704
57706.7
57710.6
57714.2
57719.7
57723.7
57731
57738.4
57745.2
57752.5
57761.7
57770.8
57780.5
57789.9
57798.8
57808.9
57816.3
57826.8
57837.8
57847.7
57857.1
57867.1
57880.2
57890.9
57900.7
57910.4
57921.9
57933.2
57942.1
57951.9
57960.8
57972.2
57981.5
57990.8
58000.4
58009.5
58019.3
58027
58034.3
58041.7
58052.6
58062.6
58070
58077.2
58083.7
58087.4
58089.7
58095.9
58105.6
58111.7
58116.3
58120.6
58123.2
58125
58127.5
58131.7
58135.8
58139
58141.4
58144.2
58147.8
58151.8
58156.9
58162.2
58168.8
58174.2
58179.8
58187.1
58194.4
58200.2
58201.2
58198.6
58192.6
58184.5
58175.3
58165.7
58156
58146.8
58137.9
58129.5
58121.5
58113.9
58106.8
58100.2
58093.8
58087.9
58082.2
58076.8
58071.8
58067
58062.6
58058.3
58054.4
58050.4
58046.9
58043.3
58040
58036.6
58033.6
58030.7
58028
58025.3
58022.8
58020.3
58018
58015.7
58013.4
58011.3
58009.1
58007.3
58005.3
58003.5
58001.6
58000
57998
57996.2
57994.2
57992.4
57990.4
57988.6
57986.9
57985.3
57983.9
57982.5
57981.5
57980.1
57979
57977.8
57976.8
57975.8
57974.9
57973.9
57973.1
57972.2
57971.5
57970.7
57970
57969.3
57968.6
57968
57967.3
57966.4
57965.8
57965
57964.2
57963.6
57962.8
57962.1
57961.4
57960.4
57959.9
57959.1
57958.6
57957.7
57957.1
57956.3
57955.3
57954.5
57953.5
57952.7
57951.9
57951.3
57950.7
57950.1
57949.5
57948.8
57948.2
57947.4
57946.7
57945.8
57945
57944.2
57943.4
57942.7
57942.2
57941.7
57941.4
57941.1
57941
57940.9
57940.9
57941
57941.2
57941.4
57941.6
57941.9
57942.3
57942.5
57942.7
57942.9
57942.9
57942.9
57942.9
57942.8
57942.5
57942.3
57941.7
57941.3
57940.8
57940.4
57939.8
57939.7
57939.2
57938.8
57938.4
57938
57937.6
57937.3
57937
57936.7
57936.5
57936.1
57935.8
57935.4
57935.2
57934.9
57934.7
57934.5
57934.4
57934.2
57934.2
57934.2
57934
57933.7
57933.5
57933.1
57932.8
57932.5
57932.1
57931.7
57931.4
57931.1
57930.7
57930.3
57930
57929.7
57929.5
57929.1
57928.8
57928.3
57927.9
57927.3
57926.8
57926.3
57925.6
57925.1
57924.6
57924.1
57923.7
57923.2
57922.6
57922.2
57921.7
57921.2
57920.6
57920.1
57919.7
57919.2
57918.9
57918.6
57918.3
57918.1
57918
57917.6
57917.5
57917.4
57917.4
57917.4
57917.3
57917.1
57917
57916.6
57916.4
57915.9
57915.8
57915.2
57914.9
57914.3
57913.8
57913.3
57912.8
57912.2
57911.7
57911.1
57910.5
57910
57909.5
57909.1
57908.6
57908.1
57907.8
57907.3
57907
57906.8
57906.7
57906.6
57906.5
57906.3
57906.2
57906.1
57905.8
57905.8
57905.6
57905.6
57905.7
57905.8
57905.9
57905.9
57905.9
57905.9
57905.8
57905.8
57905.6
57905.4
57905.2
57904.8
57904.6
57904.3
57904.1
57904
57903.8
57903.8
57903.8
57903.8
57903.8
57903.7
57903.7
57903.7
57903.7
57903.8
57904
57904
57904.1
57903.6
57903.6
57903.4
57903.4
57903.3
57903.2
57903.1
57902.9
57902.6
57902.4
57902.2
57902
57901.8
57901.4
57901.1
57900.7
57900.3
57899.7
57899.3
57898.8
57898.4
57898.1
57897.9
57897.6
57897.5
57897.3
57897.2
57897.1
57897.2
57897.2
57897.3
57897.3
57897.5
57897.5
57897.5
57897.4
57897.5
57897.3
57897.4
57897.4
57897.7
57897.8
57898
57898.3
57898.4
57898.6
57898.9
57899
57899.2
57899.4
57899.6
57899.9
57899.9
57900.1
57900.1
57900.3
57900.3
57900.7
57900.9
57901.2
57901.6
57902
57902.4
57902.9
57903.1
57903.4
57903.5
57903.7
57903.8
57904
57904.1
57904.4
57904.6
57904.7
57904.9
57905
57905.2
57905.2
57905.4
57905.5
57905.4
57905.4
57905.7
57905.8
57905.8
57906
57906.2
57906.4
57906.5
57906.7
57906.7
57906.6
57906.5
57906.5
57906.4
57906.3
57906.3
57906.3
57906.3
58256.8
58256.8
58256.7
58256.5
58256.2
58255.9
58255.6
58255.1
58254.6
58253.9
58253.1
58252.2
58251.1
58249.8
58248.3
58246.5
58244.5
58242.2
58239.6
58236.6
58233.4
58229.9
58226
58221.8
58217.2
58212.1
58206.7
58200.8
58194.4
58187.6
58180.4
58172.6
58164.4
58155.6
58146.5
58136.9
58126.9
58116.3
58105.3
58093.9
58082.1
58070
58057.5
58044.6
58031.4
58017.8
58004
57989.9
57975.5
57961
57946.4
57931.8
57917.3
57902.8
57888.3
57874
57860
57846.4
57833.1
57820.2
57807.7
57795.7
57784
57772.7
57761.8
57751.6
57742.1
57733.2
57724.9
57717.4
57711
57705.4
57700.5
57696.3
57693.6
57691.3
57689.9
57689.5
57690.3
57691.4
57692.9
57696
57699.9
57704.2
57709.3
57714.3
57720.7
57728.3
57735.1
57742.7
57750.9
57761.3
57770.3
57780.5
57790.2
57800.1
57809.6
57820.6
57831.2
57842.5
57851.2
57861.2
57873.5
57884.3
57894.5
57903.8
57914.9
57925.4
57935.7
57945
57954.2
57964.3
57973.5
57983.2
57992.2
58001.7
58010.8
58018
58024.3
58032.7
58044
58054
58061.9
58068.4
58073.4
58075.5
58079.4
58087
58096.7
58103.4
58107.7
58111
58113.6
58115.5
58118.1
58122.5
58127
58130.3
58132.7
58134.9
58137.7
58141.1
58145.8
58151.2
58157.1
58161.9
58167
58172.6
58179.3
58182.9
58182.1
58180.3
58175.2
58167.8
58159.7
58150.9
58142.3
58133.9
58125.7
58118.1
58110.4
58103.3
58096.5
58089.9
58084
58078.1
58072.4
58067
58062.2
58057.7
58053.4
58049.2
58045.4
58041.5
58037.8
58034.3
58031.2
58028.2
58025.2
58022.4
58019.5
58016.8
58014.2
58011.8
58009.8
58007
58004.8
58002.7
58000.7
57998.7
57996.6
57994.9
57992.9
57991.3
57989.4
57987.6
57985.6
57983.8
57982
57980.2
57978.6
57977.2
57975.9
57974.5
57973
57971.7
57970.6
57969.5
57968.4
57967.6
57966.5
57965.8
57964.8
57964.2
57963.2
57962.7
57961.8
57960.9
57960.2
57959.6
57958.9
57958.3
57957.4
57956.5
57955.6
57954.7
57954.2
57953.4
57952.6
57952.1
57951.4
57950.7
57949.8
57949.1
57948.2
57947.5
57946.8
57945.9
57945
57944.5
57943.5
57942.7
57942.3
57941.4
57940.9
57940.2
57939.5
57938.8
57938
57937.2
57936.4
57935.5
57935.1
57934.3
57933.9
57933.4
57933.2
57932.7
57932.6
57932.5
57932.6
57932.5
57932.7
57932.9
57933.3
57933.5
57933.8
57934
57934.3
57934.3
57934.5
57934.3
57934.3
57934.2
57934.3
57934.1
57933.6
57933
57932.3
57932
57931.8
57931.2
57930.9
57930.4
57929.7
57929.3
57928.9
57928.6
57928.2
57928
57927.8
57927.6
57927
57927
57926.5
57926.5
57926.3
57925.8
57925.8
57925.8
57925.7
57925.7
57925.4
57925.2
57924.8
57924.5
57924.2
57923.9
57923.4
57922.8
57922.7
57922.5
57922.2
57921.9
57921.8
57921.4
57920.6
57920.3
57919.7
57919.3
57919
57918.5
57918.2
57917.7
57917.5
57917
57916.4
57916
57915.3
57914.6
57914.3
57913.7
57913.2
57912.7
57912.4
57912
57911.6
57911
57910.8
57910.4
57910.4
57910
57909.8
57909.4
57909.2
57909.1
57908.8
57908.7
57908.8
57908.5
57908.3
57908.1
57908
57907.7
57907.2
57906.6
57906.3
57905.5
57904.8
57904.6
57904.3
57903.9
57903.6
57902.9
57902.6
57901.9
57901.3
57900.7
57900.4
57899.9
57899.5
57899
57898.6
57898.6
57898.3
57898.5
57898.2
57898.3
57897.8
57897.8
57897.5
57897.6
57897.7
57897.5
57897.3
57897.6
57897.5
57897.4
57897.6
57897.4
57897.6
57897.5
57897.3
57897
57896.8
57896.6
57896.6
57896
57895.8
57895.3
57895.4
57895.3
57895.4
57895.2
57895.3
57895.4
57895.3
57895.4
57895.6
57895.7
57895.7
57895.6
57895.5
57895.3
57895.2
57895
57895.1
57895
57894.9
57894.5
57894.5
57894.5
57894.3
57894.1
57894
57893.4
57893.4
57892.9
57892.3
57891.8
57891.2
57890.6
57890.2
57890
57889.8
57889.6
57889.4
57889
57888.7
57888.7
57888.6
57888.7
57888.6
57888.9
57888.9
57889.1
57889.1
57889.6
57889.4
57889.4
57889.3
57889.3
57889.3
57889.4
57889.5
57889.7
57889.8
57890.1
57890.3
57890.6
57890.9
57891.3
57891.2
57891.4
57891.4
57891.6
57891.8
57891.9
57891.7
57892.2
57892.2
57892.5
57892.8
57893.1
57893.5
57894
57894.3
57894.7
57894.9
57895.1
57895.3
57895.3
57895.6
57895.8
57896
57896
57896.2
57896.3
57896.4
57896.6
57896.7
57896.6
57896.6
57896.8
57897.1
57896.9
57897.3
57897.5
57897.6
57897.6
57897.8
57898.1
57898.1
57898.1
57898.1
57897.8
57897.7
57897.7
57897.7
57897.6
57897.6
57897.7
58240.6
58240.5
58240.4
58240.1
58239.8
58239.5
58239.1
58238.7
58238.1
58237.4
58236.6
58235.6
58234.5
58233.1
58231.6
58229.8
58227.7
58225.4
58222.8
58219.9
58216.6
58213
58209.1
58204.9
58200.3
58195.2
58189.8
58183.8
58177.4
58170.5
58163.1
58155.3
58147
58138.2
58129.1
58119.4
58109.3
58098.7
58087.7
58076.2
58064.3
58052.1
58039.6
58026.8
58013.6
58000.1
57986.2
57972
57957.6
57943.1
57928.5
57914
57899.6
57885.1
57870.6
57856.3
57842.5
57828.9
57815.7
57802.6
57789.9
57777.8
57766.3
57755.1
57744.1
57733.9
57724.2
57715.3
57707.5
57700
57693
57687.5
57683.2
57678.6
57675.5
57674.1
57672.7
57672.3
57673.1
57674.6
57676.3
57679
57683.5
57688.5
57693.1
57699.8
57705.5
57713
57719.9
57728.5
57736.8
57746
57755.6
57765.2
57773.9
57783.6
57793.7
57805.8
57817.1
57827.1
57836.9
57848
57860.3
57870.6
57880.8
57890.8
57901.2
57911.5
57922
57931.6
57940.9
57950.7
57960
57969.6
57979.1
57988.6
57997.7
58005.4
58012.2
58021.4
58032.5
58041
58048.7
58054.8
58060.3
58064.2
58068.8
58076.1
58085.5
58091.4
58095.6
58099
58101.2
58103.2
58107.1
58111.6
58115.2
58117.5
58119
58120.4
58122.1
58124.5
58128.8
58133.6
58139.1
58142.8
58146.7
58151
58155.6
58158.4
58157.6
58156
58151.2
58145.1
58138.3
58130.9
58123.2
58115.7
58108.5
58101.3
58094.6
58088
58081.6
58075.9
58070
58063.9
58059
58053.7
58049.1
58044.3
58040.3
58036.3
58033
58028.7
58025.2
58021.9
58018.9
58015.9
58012.9
58009.6
58007
58004.8
58002.1
57999.4
57997
57995.2
57992.9
57990.6
57988.4
57986.7
57984.7
57982.7
57981
57979.7
57977.6
57976
57973.9
57972.4
57970.3
57968.5
57966.6
57965
57963.8
57962.2
57960.9
57960
57959.1
57958.2
57957.1
57956.3
57955
57953.8
57952.8
57951.8
57951.4
57950.6
57950
57949.3
57948.4
57948
57946.8
57946.3
57945.9
57944.9
57944.3
57943.3
57942.4
57942.1
57940.9
57939.8
57939.4
57938.7
57937.8
57937.2
57936.5
57935.4
57934.3
57933.5
57932.7
57932
57931.8
57931.4
57930.6
57930
57929.2
57928.4
57927.7
57927
57926.4
57925.4
57924.6
57923.7
57923.1
57922.7
57922.4
57922.2
57922.3
57921.8
57921.5
57921.3
57921
57921.1
57921.2
57921.3
57921.6
57921.9
57922.3
57922.7
57922.7
57923
57922.6
57923
57922.8
57922.4
57922.2
57922.5
57921.6
57921.1
57920.6
57920.3
57919.5
57918.8
57918.5
57918.5
57918.1
57917.4
57917
57916.7
57916.6
57916.4
57916.2
57915.8
57915.9
57915.3
57914.8
57914.7
57914.8
57914.6
57914.2
57913.9
57914.1
57914.5
57913.7
57913.4
57912.8
57912.5
57912.6
57912.9
57912.2
57911.7
57911.5
57911
57910.6
57910.1
57909.5
57908.9
57909.1
57908.4
57908.4
57907.5
57907.6
57907.1
57906.3
57905.8
57905.2
57904.8
57904.4
57904
57903.8
57903.3
57902.7
57902.4
57902
57901.5
57900.9
57900.2
57899.5
57899.2
57898.4
57898.4
57898.3
57898.2
57898.5
57897.8
57897.1
57896.7
57896.8
57896.8
57896.7
57896.9
57896.5
57896.1
57895.9
57895.8
57895.6
57894.7
57894
57893.7
57893.4
57893
57892.3
57891.6
57891.2
57890.4
57890
57889.5
57889.4
57889.1
57889
57888.9
57888.2
57887.6
57887.3
57887.2
57887
57886.9
57886.8
57886.3
57886.1
57885.7
57885.7
57885.6
57885.3
57885.2
57885.1
57885.2
57885.2
57885.3
57885.5
57885.5
57885.6
57886.2
57885.5
57885.5
57885
57884.8
57885.1
57884.2
57883.9
57883.5
57883.2
57883.3
57883.4
57883.4
57883.3
57883.2
57883.4
57883.3
57883.1
57883.4
57883.7
57883.6
57884
57883.1
57883.5
57883.2
57883.4
57883.6
57883.1
57883.1
57882.6
57882.5
57882.4
57882.3
57882.2
57881.9
57881.4
57880.6
57880.2
57879.4
57878.9
57878.7
57878.3
57878.1
57877.7
57878
57877.4
57877.3
57877.2
57877.1
57877
57877.1
57877.2
57877
57877.3
57877.8
57877.7
57878
57877.5
57877.7
57877.6
57877.7
57877.7
57878.3
57878.8
57878.7
57878.4
57878.9
57879
57879.1
57879.7
57880.3
57880.2
57880.1
57880.1
57880.2
57880
57880.2
57880
57879.8
57880.4
57880.2
57880.3
57880.8
57881.5
57882
57882.5
57882.6
57882.9
57883
57883.1
57883.3
57883.5
57883.6
57884.5
57884.4
57884.5
57884.4
57884.8
57885.2
57885
57885
57885
57884.9
57884.9
57885.3
57885.3
57885.2
57885.3
57885.4
57885.7
57885.7
57886.1
57885.5
57885.6
57885.8
57885.9
57886
57885.7
57885.7
57885.8
57886.3
58218.1
58218
58217.9
58217.6
58217.3
58216.9
58216.5
58216
58215.3
58214.6
58213.7
58212.7
58211.6
58210.2
58208.6
58206.7
58204.6
58202.2
58199.6
58196.6
58193.3
58189.6
58185.6
58181.3
58176.6
58171.6
58166.2
58160.2
58153.6
58146.4
58138.9
58130.9
58122.6
58113.9
58104.6
58094.8
58084.6
58074
58063
58051.6
58039.6
58027.4
58014.9
58002.1
57988.9
57975.4
57961.6
57947.4
57932.9
57918.3
57903.7
57889.2
57874.9
57860.5
57846.1
57832
57818.3
57804.8
57791.5
57778.4
57765.6
57753.2
57741.9
57731.2
57720.3
57709.6
57699.7
57691.2
57683.5
57676.1
57668.9
57663.5
57659.3
57654.8
57651.6
57650.4
57648.9
57648.7
57649.8
57651.8
57652.8
57655.6
57661.2
57666.1
57671.7
57678.4
57685.3
57691.9
57699.9
57708.8
57717.3
57726.4
57737.2
57746.2
57755.4
57765.6
57777.3
57788.9
57798.6
57808.9
57819.9
57830.5
57842
57853.3
57863.1
57873.3
57883.2
57894.7
57905.5
57914.2
57925
57934.9
57944.4
57954.8
57964.1
57974.6
57983.4
57992.1
58001
58009.9
58019.1
58026.7
58032.5
58039.4
58045.6
58051.2
58058
58064.6
58072.3
58076.8
58080.4
58083.6
58087
58090.4
58093.9
58096.3
58098.3
58099.9
58100.7
58100.6
58100.2
58101.2
58105
58109.4
58113.8
58117
58119.8
58123
58125.8
58127.5
58126.9
58125.6
58121.5
58116.7
58111.1
58105.1
58099.4
58093.4
58087.3
58081.5
58074.6
58068.6
58063
58057.4
58052.6
58047
58040.7
58035.9
58031.1
58027.4
58024.1
58019.8
58016.8
58013
58009.1
58005.9
58003.4
58000.7
57996.8
57993.9
57991.6
57989.9
57986.3
57984.4
57983.3
57980.1
57977.4
57975.2
57973.1
57971.7
57968.9
57967.4
57965.7
57965
57962.6
57961.1
57959.3
57958
57955.3
57953.3
57951.7
57950.3
57948.9
57948.4
57947
57945.4
57944.8
57943.9
57942.2
57941.5
57939.9
57938.9
57938.1
57937.5
57936.4
57936.1
57935.9
57934.3
57933.6
57933.5
57932
57931.2
57930.7
57929.1
57927.9
57927.5
57927
57927.2
57925.7
57925.2
57924.8
57923.8
57923
57922.1
57921.6
57921.1
57919.6
57918.2
57917.3
57916.8
57916.4
57917
57915.8
57914.3
57914.1
57912.6
57912.4
57912.1
57911.1
57910.6
57910.4
57909.7
57908.8
57908
57907.7
57907.3
57907.7
57907
57907
57907
57906.9
57906.8
57906.7
57906.9
57907
57907.3
57907.9
57908.5
57908.1
57908.5
57907.5
57908.3
57907.3
57907.3
57907.5
57908
57907.1
57906.1
57905.3
57905.4
57905.7
57905.2
57904.4
57903.9
57903.6
57903
57902.2
57901.5
57901.2
57901.1
57901.5
57901.4
57900.8
57900.1
57900.1
57899.8
57900.1
57899
57898.9
57898.9
57899.1
57900.1
57898.7
57898
57897.6
57897.2
57897.4
57897.8
57897
57897.3
57897.6
57897
57895.8
57894.9
57894.6
57894.2
57893.9
57893.6
57893.6
57893.4
57892.8
57891.8
57891.6
57891.1
57890.4
57890.2
57889.5
57889.2
57889.3
57888.3
57887.8
57888
57887.9
57886.9
57886.4
57885.6
57885.2
57884.7
57884.4
57884.1
57884.4
57883.3
57883.5
57882.2
57881.9
57881.7
57881.6
57881.5
57881.7
57882.3
57881.3
57880.7
57881
57881.6
57881.2
57880.2
57880.3
57879.1
57878.8
57877.6
57877.2
57877
57877.1
57876.4
57875.5
57874.9
57874.5
57874.6
57875
57874.7
57874.1
57873.2
57872.8
57872
57872.3
57872.8
57871.9
57871.7
57871.3
57871.4
57870.7
57870.8
57871.7
57870.2
57870.5
57870.7
57870.9
57871
57871.3
57870.6
57870.9
57871.3
57870.7
57870.6
57870
57869.8
57869.4
57869.2
57868.5
57868.6
57868.8
57869.3
57868.7
57868.8
57869
57868.7
57868.3
57868.7
57868.9
57868.7
57868.9
57869.6
57869.6
57869
57868.3
57868.2
57868.6
57868.9
57868.3
57868.1
57868.1
57868.2
57868.4
57867.8
57868.4
57868
57866.7
57865.9
57865.9
57865
57864.1
57863.7
57863.3
57862.9
57863
57863.4
57862.9
57862.5
57862.1
57862.2
57862.6
57862.7
57862.7
57862.9
57863.2
57863.8
57863.4
57864.3
57863.2
57863.5
57863.8
57863.2
57863
57863.3
57864.2
57863.6
57864.3
57864.3
57864.8
57865
57865.2
57866.1
57864.8
57865
57865.2
57866
57865.6
57866.1
57865.1
57865
57865.6
57865.2
57865.5
57865.8
57865.9
57866.6
57867.7
57867.8
57867.8
57868.5
57868.6
57868.2
57868.7
57869.2
57870.2
57869.7
57869.4
57869.2
57869.3
57870.1
57869.9
57870.3
57869.9
57869.6
57869.6
57870.2
57870.1
57869.9
57869.8
57870.6
57871.1
57872.1
57871.9
57871
57870.7
57870.2
57870.5
57871.1
57870.7
57870.6
57871
57872.2
58188.8
58188.8
58188.6
58188.3
58187.9
58187.6
58187.1
58186.5
58185.8
58185.1
58184.2
58183.1
58182
58180.5
58178.9
58176.9
58174.7
58172.3
58169.7
58166.7
58163.3
58159.7
58155.7
58151.3
58146.6
58141.6
58136.1
58130.1
58123.4
58116.2
58108.6
58100.6
58092.3
58083.5
58074.2
58064.3
58054.1
58043.5
58032.5
58021.1
58009.3
57997.1
57984.6
57971.7
57958.4
57945
57931.1
57916.9
57902.4
57887.9
57873.4
57858.8
57844.4
57830.1
57816
57802.1
57788.3
57774.7
57761.5
57748.3
57735.4
57723.1
57711.5
57700.8
57689.9
57679.3
57669.4
57660.7
57653.4
57645.9
57638.9
57633.5
57629.2
57625
57622.2
57620.7
57619.1
57618.4
57620.1
57622.5
57624
57627.1
57632.1
57637.3
57642.5
57649.9
57657
57664.2
57672.4
57681
57690.9
57700.4
57711.1
57720.2
57729
57740.2
57751.7
57763.1
57773.6
57783.7
57795.3
57806.8
57818.1
57828.7
57839.4
57850.5
57860.7
57871.9
57881.8
57892.7
57903.6
57913
57923.6
57933.8
57944.1
57954.9
57963.2
57973
57981.6
57991
58000.3
58007.9
58013.4
58019.8
58026.1
58032.2
58038.4
58047.5
58053.7
58058.5
58062.3
58065.4
58068.4
58071.1
58073
58075
58076.7
58077.6
58077.4
58075.9
58073.8
58073.7
58076.4
58079.3
58082.4
58084.3
58086.6
58088.3
58090
58091.6
58091.1
58090.4
58087.3
58084.1
58080.1
58075.3
58070.8
58066.4
58061.8
58056.6
58050.8
58045.2
58040
58035.4
58031.3
58025.9
58020.6
58016
58011.6
58007.7
58004.5
58000.1
57995.9
57993.4
57989.2
57986.2
57983.3
57981.9
57978.2
57975.1
57972.4
57970.6
57967.8
57966
57965.6
57961.7
57959.2
57956.9
57955
57954.3
57951.2
57948.7
57947
57946.3
57943.9
57942.8
57940.7
57939.9
57937.2
57935.3
57933.9
57932.9
57931.5
57931.6
57929.2
57927.8
57927.3
57924.7
57924.4
57922.7
57922
57921.3
57920.1
57919.8
57919.4
57918.6
57918.1
57916.5
57915
57913.8
57913.3
57912.6
57911.5
57910.6
57909.7
57909.7
57908.4
57906.9
57906.9
57906.4
57906.1
57905.7
57904.9
57903.5
57903
57903.1
57901
57900
57899.5
57899.4
57898.8
57896.9
57897
57896.1
57896.3
57895.1
57893.9
57893.7
57893.2
57892.4
57892.5
57891
57890.7
57889.9
57890.3
57889.7
57889.6
57890.3
57890.3
57890.7
57890.4
57889.5
57889.2
57889.2
57889.6
57889.6
57890.6
57890.4
57889.6
57888.8
57888.7
57887.8
57888.5
57889.2
57889.4
57888.3
57888.9
57888.2
57887.3
57887.5
57888.1
57887.3
57885.9
57885.1
57884.3
57883.4
57883.2
57883
57883
57883
57884.3
57884.5
57884
57882.6
57881.5
57881.6
57882.4
57881
57881.3
57880.6
57880.6
57881.4
57880.5
57880.4
57879.3
57879
57879.5
57878.4
57879
57878.6
57879.1
57879.6
57878.3
57877.8
57877.1
57876.6
57876.1
57874.8
57875.4
57876.5
57875.6
57873.9
57873.5
57873.2
57872.8
57872.5
57872.1
57871.3
57871.1
57870.2
57870.1
57870.9
57869.4
57869.5
57869.8
57868.5
57867.7
57867.2
57866.7
57866.3
57867
57865.9
57864.7
57864.2
57864
57863.9
57863.3
57863.6
57863.2
57862.7
57863.1
57862.7
57863
57863.5
57862.4
57862.2
57863.1
57860.8
57860
57859.7
57859.6
57858.7
57859.3
57859
57858.2
57857
57856.7
57856.9
57858.2
57857.4
57857
57855.3
57855.2
57855
57855.1
57855.8
57854.9
57854.5
57853.1
57853.7
57854.5
57853.9
57855
57853.3
57853.1
57852.8
57852.9
57853.7
57853.8
57852.4
57852.5
57851.3
57851.5
57851.3
57851.6
57852.1
57853.2
57851.6
57851
57850.9
57851.5
57852.2
57851
57850.9
57851.3
57850.9
57850.7
57852
57852.4
57852
57851.4
57851.8
57851.1
57852.1
57850.5
57850.1
57850.9
57850.4
57850.2
57850.6
57850
57850.8
57851.1
57850.1
57850.4
57848.6
57848.6
57848
57847.6
57846.1
57845.6
57845.8
57845.4
57844.6
57844.6
57844.7
57844.8
57845.1
57845.1
57844.7
57844.7
57845.5
57845.3
57845.8
57845.4
57845.7
57845.4
57846.7
57845.8
57846.6
57846.7
57845.8
57845.2
57845.4
57845.3
57846.6
57846.3
57847
57846.9
57847.8
57847.9
57848.8
57848.4
57848.2
57848.3
57848.4
57847.6
57848.2
57846.9
57846.8
57846.4
57846.9
57847.1
57847.9
57848.6
57849.1
57849.1
57849
57849.6
57850.3
57850.6
57850
57850
57850.4
57850.7
57852
57851.7
57851.1
57850.9
57851.2
57851.4
57852.6
57851.4
57851.5
57852.2
57853.4
57852.8
57853.3
57852.5
57852.6
57852.8
57854.4
57853.5
57853
57852.9
57852.4
57852.7
57852.1
57852.1
57852.9
57852.6
57853.6
58154
58153.9
58153.8
58153.5
58153.1
58152.7
58152.3
58151.7
58151
58150.2
58149.4
58148.3
58147.1
58145.7
58144.1
58142.2
58140
58137.6
58134.9
58131.9
58128.7
58125.1
58121.2
58116.9
58112.2
58107.1
58101.7
58095.6
58089
58081.9
58074.3
58066.3
58057.9
58049
58039.7
58029.7
58019.5
58008.9
57998.1
57986.7
57974.9
57962.6
57950
57937
57923.7
57910.2
57896.4
57882.2
57867.7
57853.2
57838.8
57824.2
57809.6
57795.3
57781.4
57767.6
57753.8
57740.1
57726.7
57713.7
57700.8
57688.1
57676.3
57665.4
57654.5
57644
57634.3
57625.6
57617.7
57610.4
57603.6
57598.1
57593.4
57589.5
57586.7
57585.4
57583.9
57583.1
57585.3
57587.6
57590.3
57592.6
57598.4
57603.4
57608.1
57615.2
57624
57631.7
57638.9
57649.1
57660.1
57669.8
57680.1
57690.4
57700.4
57711.8
57723.4
57734.6
57745.5
57755.8
57768.7
57780.7
57790.5
57801.7
57812.9
57824.3
57833.9
57844.8
57855.5
57866.1
57877
57887
57897.8
57908.9
57920.2
57930.2
57938.9
57948.3
57958.7
57968.4
57977.7
57985
57992.3
57998.4
58005.3
58012.9
58020.1
58025.1
58031.9
58037.3
58041.1
58044
58046.3
58048.1
58049.2
58050
58050.7
58051
58050.1
58047.8
58044.4
58043.1
58043.3
58044.5
58044.9
58046.6
58047.4
58047.8
58050.3
58050.8
58050.9
58050.6
58048.7
58046.7
58044.2
58041.8
58038.5
58035.1
58032.7
58027.2
58022.9
58018.5
58014.3
58009.8
58004.4
58001.1
57995.9
57991.6
57987.7
57984.1
57980.8
57976.1
57971.7
57968.5
57966.2
57963.7
57960.4
57957.1
57955.7
57952.5
57949.3
57946.5
57945
57942.5
57941.7
57939.7
57937.8
57935.6
57932.4
57931.7
57929
57927
57924.6
57923.3
57921.5
57920.2
57918.5
57918.1
57915.6
57914.2
57912.3
57912.1
57909.7
57908.4
57907.6
57905.9
57905.5
57903.3
57903.1
57900.8
57901.2
57901.1
57899.4
57897.7
57898.3
57896.2
57895.1
57895.6
57894.2
57892.1
57891.1
57891.2
57889.7
57889.3
57888.6
57888.5
57887.2
57885.1
57885.2
57885.6
57885.1
57883.9
57883.1
57882.3
57881.8
57881.4
57879.3
57877.7
57877.4
57877
57877.8
57875.5
57874.5
57874.4
57872.9
57874
57872.4
57872.6
57872.3
57871.1
57871.4
57870
57870.5
57869.3
57868.4
57868.7
57868.8
57870.6
57870.9
57871
57869.4
57869.2
57869.5
57868.9
57868.2
57868.9
57869.3
57867.9
57868.2
57867.2
57867.2
57866.3
57866.7
57868
57866.3
57865
57865
57866.4
57865
57865.3
57864
57865.4
57864.4
57863.4
57862.7
57862.4
57862.8
57862.2
57862.4
57861.8
57862.5
57861.3
57862.8
57861.8
57860.2
57860.3
57858.9
57859.9
57860.2
57860.1
57859
57858.6
57859.7
57859.8
57858.4
57857.7
57858.3
57857.3
57858.6
57858.9
57859.1
57857.9
57857.1
57857.7
57856.1
57856.9
57855.8
57854.9
57856
57853.6
57854.2
57852.6
57852.5
57851.7
57850.5
57850.4
57850.5
57850
57849.2
57849
57848.8
57849.7
57848.7
57848.8
57848.9
57847
57846.3
57846.3
57844.6
57844.8
57845.5
57844
57843.1
57843.5
57843.3
57842.4
57842.5
57842.8
57842.1
57841.2
57842.1
57841.2
57841.4
57839.3
57839.9
57840.3
57840.4
57839.3
57838.5
57838
57838.3
57836.5
57835.7
57834.4
57836.8
57836
57836.3
57835.5
57836.7
57836.2
57836.2
57835.2
57834.1
57834.7
57835.5
57835.3
57834.5
57834.9
57833.6
57834.2
57835.1
57833.2
57833.2
57833.2
57831.9
57831.2
57831.8
57831.2
57832.2
57830.9
57831.1
57830.8
57830.5
57829.4
57829.9
57831
57831.2
57829.9
57829.8
57830
57830
57830.5
57830.1
57830.2
57829.5
57830.3
57830.4
57831.7
57830.7
57831.2
57830.1
57830.6
57830.8
57828.7
57829.1
57829.2
57829.2
57828.6
57829.4
57830.1
57829
57828.9
57828.7
57827.5
57826.5
57826.5
57826.6
57825.4
57825.1
57825.2
57824.2
57824.2
57823.5
57824.2
57824.2
57823.5
57824.4
57825.1
57825.2
57824.4
57825.3
57825.2
57824.6
57824.4
57824.4
57824.2
57824.5
57823.1
57823.4
57824.7
57823.6
57824.6
57824.2
57824
57824
57825
57826.1
57826.6
57826.4
57826.1
57826.4
57825.7
57826.4
57826.5
57827.1
57826.1
57826.3
57825
57825.2
57825.8
57824.4
57825.3
57827
57827.7
57828.4
57827.4
57826.9
57827.4
57827.6
57828.2
57828.3
57828.3
57829
57830
57829.4
57831
57831.4
57830.4
57830.1
57829.8
57829.8
57830.8
57830.6
57831.3
57832.3
57833.1
57831.6
57833.1
57832
57831.6
57831.5
57831.6
57830.6
57830.1
57830.3
57830.6
57831.2
57830.7
57831.1
57831.9
57830.8
57830
58115.5
58115.4
58115.1
58114.9
58114.5
58114.1
58113.6
58113
58112.4
58111.6
58110.7
58109.7
58108.5
58107.1
58105.4
58103.4
58101.3
58098.8
58096.1
58093.2
58089.9
58086.3
58082.4
58078.2
58073.6
58068.5
58063
58057
58050.4
58043.3
58035.8
58027.8
58019.3
58010.4
58001
57991.1
57980.8
57970.2
57959.5
57948.2
57936.5
57924.1
57911.5
57898.4
57884.9
57871.4
57857.5
57843.4
57828.8
57814.2
57799.9
57785.3
57770.7
57756.4
57742.6
57728.9
57715.1
57701.5
57687.9
57674.7
57661.7
57649.1
57636.8
57625.3
57614.7
57604.3
57594.5
57585.7
57578
57570.3
57563.4
57557.8
57553.5
57549.5
57546.3
57545.6
57543.9
57543.4
57544.5
57547.3
57549.8
57551.9
57557.9
57562.1
57567
57573.7
57585.1
57591.8
57599.9
57610.2
57622.4
57631.7
57641.9
57653.6
57665.3
57676.9
57688.5
57699.5
57710.6
57721.7
57734.6
57745.4
57755.5
57767.4
57779.8
57791.2
57800.5
57811.2
57824.5
57835.4
57846
57856.8
57868.8
57880
57891.4
57901.9
57911.5
57920.6
57930.4
57941
57948.8
57957.8
57965.3
57972.2
57979.6
57986
57993.5
58000.2
58006.4
58011.3
58014.6
58016.8
58018.6
58019.5
58019.5
58019.6
58019.3
58018.5
58017
58014
58010.5
58006.9
58005.5
58003.5
58003
58002.8
58002.4
58003.8
58005
58006.6
58006.7