/*--------------------------------*- C++ -*----------------------------------*\
| =========                 |                                                 |
| \\      /  F ield         | OpenFOAM: The Open Source CFD Toolbox           |
|  \\    /   O peration     | Version:  v2012                                 |
|   \\  /    A nd           | Website:  www.openfoam.com                      |
|    \\/     M anipulation  |                                                 |
\*---------------------------------------------------------------------------*/
FoamFile
{
    version     2.0;
    format      ascii;
    class       surfaceScalarField;
    location    "450";
    object      phi;
}
// * * * * * * * * * * * * * * * * * * * * * * * * * * * * * * * * * * * * * //

dimensions      [1 0 -1 0 0 0 0];
oriented        oriented;


internalField   nonuniform List<scalar> 
130432
(
30.7307
-30.3396
59.0015
-27.8684
86.8584
-27.454
118.704
-31.4427
152.698
-33.5919
184.188
-31.0876
211.772
-27.1814
241.548
-29.3749
275.064
-33.1171
308.404
-32.9419
342.561
-33.7591
377.043
-34.0851
412.059
-34.6188
446.454
-33.9958
479.894
-33.0382
514.901
-34.6026
550.492
-35.184
585.365
-34.4634
620.414
-34.6376
657.239
-36.4129
698.411
-40.7602
744.181
-45.3567
791.381
-46.7869
836.457
-44.6587
878.659
-41.7848
918.796
-39.7206
957.596
-38.3858
997.718
-39.7083
1042.29
-44.1531
1089.78
-47.074
1136.12
-45.9092
1181.38
-44.8206
1226.75
-44.9301
1272.22
-45.0156
1318.17
-45.4982
1365.9
-47.2649
1416.2
-49.8357
1465.33
-48.6569
1510.27
-44.4667
1553.27
-42.5378
1598.73
-45.0038
1648
-48.8263
1696.55
-48.1235
1743.69
-46.7111
1790.7
-46.5923
1833.42
-42.3019
1871.77
-37.9384
1911.08
-38.9023
1952.63
-41.1397
1994.87
-41.8157
2038.98
-43.6843
2084.68
-45.2712
2124.14
-39.0268
2154.52
-29.9474
2186.66
-31.7065
2225.05
-37.9854
2262.82
-37.3854
2296.52
-33.3274
2325.81
-28.9315
2355.03
-28.8722
2388.81
-33.4244
2420.63
-31.4656
2440.48
-19.4906
2456.19
-15.3217
2483.22
-26.6259
2508.75
-25.1236
2515.43
-6.24791
2524.13
-8.22233
2553.01
-28.4095
2568.59
-15.109
2554.84
14.2637
2562.01
-6.60397
2602.41
-39.8549
2614.69
-11.7406
2589.38
25.926
2586.99
3.02775
2613.49
-25.9062
2614.26
-0.202858
2582.38
32.4791
2563.34
19.6545
2576.93
-12.9977
2586.33
-8.80946
2545.31
41.6063
2496.79
49.1196
2529.13
-31.7618
2587.27
-57.6309
2532.16
55.6138
2415.14
117.631
2404.18
11.5843
2472.12
-67.3907
2478.43
-5.7889
2430.53
48.4987
2389.82
41.3619
2333.52
56.8879
2290.92
43.2269
2339.07
-47.5572
2399.1
-59.4305
2330.56
69.2154
2211.38
119.896
2220.31
-8.20829
2310.35
-89.4236
2288.64
22.3329
2158.75
130.545
2109.57
49.8559
2184.44
-74.2931
2222.67
-37.7157
2138.38
84.84
2051.94
87.017
2077.09
-24.5949
2149.29
-71.6959
2145.63
4.21947
2073.47
72.7763
2035.31
38.7807
2058.56
-22.6861
2079.12
-19.9837
2057.27
22.4495
2037.87
19.9864
2074.6
-36.2051
2139.71
-64.6732
2153.78
-13.6213
2085.82
68.4449
1995.72
90.5794
1964.37
31.7741
2013.92
-49.1609
2114.45
-100.2
2217.89
-103.154
2269.48
-51.2751
2240.94
28.903
2169.72
71.5745
2129.06
40.9831
2156.34
-26.979
2227.71
-71.0965
2299.74
-71.8292
2348.91
-49.0471
2367.25
-18.2818
2355.09
12.1326
2335.3
19.6464
2336.11
-1.09859
2356.16
-20.5111
2372.1
-16.7118
2371.88
-0.91683
2360.01
10.3931
2336.03
21.9806
2295.42
38.1557
2247.31
45.1978
2199.74
44.0279
2140.44
55.482
2048.78
87.7451
1919.12
125.651
1768.47
146.719
1616.96
147.841
1475.6
138.024
1349.19
123.491
1237.57
109.148
1139.29
96.2702
1054.05
83.6884
979.877
73.0541
916.222
62.874
861.464
54.209
811.876
49.1668
768.24
43.3287
730.387
37.6142
697
33.1954
665.972
30.8821
635.231
30.6259
605.547
29.589
577.654
27.8432
552.478
25.1486
529.88
22.5853
508.881
20.983
490.075
18.8024
472.706
17.3676
454.598
18.0996
434.814
19.7783
415.404
19.403
397.962
17.4379
382.934
15.0123
368.361
14.5557
353.914
14.4379
340.35
13.5559
326.632
13.7214
314.099
12.5551
303.459
10.6624
293.486
9.99338
284.751
8.73554
277.097
7.67647
269.453
7.6761
261.502
7.97902
253.504
8.03697
246.446
7.09153
239.563
6.93446
232.528
7.07938
224.621
7.95892
215.885
8.78968
207.355
8.57835
199.81
7.58804
192.961
6.88348
186.859
6.13128
181.502
5.3749
176.7
4.80891
171.913
4.79069
165.159
6.74552
158.246
6.89967
151.883
6.34831
146.817
5.03979
142.832
3.95856
139.084
3.70955
134.824
4.2187
129.22
5.55202
125.209
3.95048
122.729
2.41774
120.132
2.53653
117.48
2.58611
116.239
1.16931
114.294
1.88736
111.071
3.1604
107.967
3.04653
104.559
3.35462
101.784
2.71841
97.8091
3.92178
92.2379
5.52815
87.5954
4.60697
86.0126
1.56644
85.9506
0.0586307
85.5412
0.431183
84.5264
1.05428
83.8181
0.754205
84.1815
-0.31387
84.3492
-0.105378
83.3495
1.05458
80.6084
2.78697
79.0826
1.57442
79.6438
-0.527595
78.6668
1.00519
75.2841
3.40138
71.1745
4.1157
66.9237
4.25937
63.1377
3.80415
61.5315
1.62805
60.3928
1.15121
59.5281
0.872733
60.0405
-0.508376
59.5499
0.480579
57.6387
1.89023
55.0556
2.54773
52.1564
2.85477
50.6062
1.50127
49.8864
0.667852
49.3143
0.527374
48.9455
0.324532
47.6529
1.25103
45.746
1.86402
43.6194
2.07812
41.21
2.35872
40.3377
0.825822
40.1344
0.167356
38.1614
1.94885
35.9892
2.16728
34.0051
1.99278
31.829
2.19847
31.6827
0.17123
31.2474
0.468341
29.6281
1.65152
27.9798
1.66777
25.9273
2.0593
23.4046
2.51341
21.0438
2.33367
19.917
1.0999
21.6948
-1.82549
24.7526
-3.11877
26.4184
-1.74548
28.1136
-1.77873
28.5995
-0.579559
27.3546
1.14479
25.2486
1.9841
23.5455
1.57987
22.3575
1.07132
21.2771
0.969414
20.485
0.67899
19.8017
0.561331
18.9903
0.675864
17.2988
1.55528
14.3473
2.8193
11.5347
2.69005
10.327
1.10102
10.4147
-0.192593
11.2695
-0.954617
11.6048
-0.42476
11.4563
0.0775884
10.2346
1.15769
8.75595
1.42366
8.69224
0.0293676
9.9975
-1.31628
11.3269
-1.33482
11.966
-0.632619
11.2734
0.6985
9.53744
1.75623
7.80266
1.76418
6.54978
1.28808
5.67493
0.896755
4.94875
0.741829
4.67004
0.29966
4.82912
-0.164031
5.25159
-0.433246
7.48306
-2.25511
11.1532
-3.70389
12.0889
-0.981548
10.76
1.25616
8.8695
1.82113
6.61154
2.17606
5.56665
0.957376
7.1188
-1.65891
7.06285
-0.0417515
5.54506
1.42866
4.26733
1.18561
2.71071
1.48294
0.944934
1.71753
-0.703948
1.5938
-0.0336661
-0.705546
0.122729
-0.202336
-0.755725
0.824776
-1.35625
0.544288
-1.80969
0.383189
-0.806205
-1.07679
0.910318
-1.7948
1.58754
-0.76176
2.55562
-1.04548
4.52773
-2.06036
7.75186
-3.30531
12.5943
-4.92788
16.665
-4.15332
16.9708
-0.387407
15.8576
1.04286
14.0558
1.72828
11.2549
2.72156
8.70282
2.47095
6.12267
2.4957
4.48001
1.57319
3.07519
1.33028
2.43839
0.573073
2.5991
-0.23197
3.23985
-0.706053
4.69381
-1.52314
5.31445
-0.68267
6.03508
-0.795219
6.30094
-0.355638
4.95302
1.25393
3.54634
1.30787
3.73389
-0.30047
5.53563
-1.9064
6.39151
-0.964655
5.73899
0.542931
4.0227
1.59965
2.35212
1.57133
2.01455
0.236098
1.41384
0.526934
1.5214
-0.173229
2.81723
-1.32222
3.75692
-0.936241
4.44817
-0.698572
4.66699
-0.23809
3.54383
1.09787
1.93397
1.58077
0.446459
1.47161
-0.610404
1.04974
-1.92355
1.32404
-2.83273
0.930958
-2.75823
-0.0424988
-2.55651
-0.179952
-1.82433
-0.702681
-1.5941
-0.221115
-0.448836
-1.14638
0.457145
-0.909818
0.675195
-0.227308
1.40662
-0.750816
2.50477
-1.11589
3.68984
-1.20563
4.86762
-1.20133
7.57524
-2.72638
7.78294
-0.22869
4.80209
2.97465
2.2847
2.50231
-0.00794294
2.26719
-2.40325
2.38841
-3.97077
1.56467
-5.09708
1.12474
-5.96241
0.868601
-7.45021
1.49128
-8.40585
0.956179
-7.29207
-1.11178
-6.05637
-1.23354
-4.22332
-1.83687
-3.84185
-0.383923
-4.60663
0.762034
-5.29912
0.688754
-6.72803
1.42318
-7.81002
1.08134
-8.79811
0.967332
-9.04219
0.219642
-8.38548
-0.682433
-7.60943
-0.801933
-6.85747
-0.788722
-4.62574
-2.25413
-2.17203
-2.46922
-1.98511
-0.200706
-4.09342
2.09934
-5.93616
1.84507
-6.08472
0.161377
-4.26528
-1.82242
-0.683069
-3.5752
1.1734
-1.83879
1.58601
-0.401358
1.78869
-0.174068
0.826484
0.974708
-1.06309
1.90899
-2.74072
1.70154
-1.80086
-0.915534
0.478414
-2.248
1.47938
-0.974738
0.573542
0.929981
-1.16396
1.74998
-2.4174
1.25197
-2.84444
0.418008
-3.6317
0.79148
-5.09623
1.4707
-6.87745
1.81037
-9.54414
2.69813
-11.8042
2.29814
-12.9505
1.20016
-13.4735
0.57117
-13.7556
0.346503
-13.901
0.207176
-13.2742
-0.570872
-13.6604
0.432344
-12.9946
-0.624006
-10.249
-2.71218
-8.73467
-1.49721
-6.53259
-2.18332
-4.32478
-2.19312
-2.64739
-1.67605
-2.59632
-0.0628786
-2.89878
0.304291
-2.50667
-0.390409
-2.40177
-0.105378
-1.4044
-0.995956
0.515451
-1.90224
3.15261
-2.62404
5.44347
-2.27789
6.33074
-0.870326
6.87395
-0.525689
7.56629
-0.673102
8.3464
-0.770956
9.25015
-0.909598
9.10029
0.135944
8.60628
0.459567
7.12096
1.44521
4.30559
2.76138
0.641071
3.60309
-2.1032
2.6777
-2.69457
0.51964
-3.37461
0.607914
-5.14805
1.70383
-7.04213
1.82701
-7.87536
0.76639
-8.92096
0.990243
-9.07964
0.102646
-8.08183
-1.06524
-7.1317
-0.996941
-5.97037
-1.18767
-3.6516
-2.3386
-0.665885
-2.97795
-0.0570099
-0.592084
-0.663368
0.624628
-2.18833
1.55843
-4.18024
2.03357
-5.74479
1.60622
-6.81219
1.10069
-7.7836
0.99962
-8.13373
0.373528
-6.37548
-1.75235
-6.00208
-0.36824
-4.69787
-1.30485
-1.34228
-3.36689
-0.108259
-1.25118
0.761624
-0.88665
0.381732
0.362429
-1.33333
1.70678
-2.87583
1.53345
-4.04747
1.17312
-5.61568
1.57691
-4.652
-0.9471
-1.06986
-3.56107
-1.50166
0.463648
-4.65199
3.17518
-7.05074
2.42275
-8.16226
1.13753
-7.03405
-1.1055
-4.66387
-2.34033
-2.71809
-1.91451
-1.03167
-1.65162
-0.0994825
-0.894075
0.122052
-0.197276
-0.918925
1.0833
-3.27167
2.38455
-5.06471
1.82042
-7.45789
2.42658
-7.87951
0.454064
-5.31961
-2.53583
-4.13741
-1.17361
-3.94651
-0.189564
-3.73195
-0.225197
-3.7383
30.1491
-60.0913
60.3975
-57.72
89.0725
-55.7319
117.854
-59.8276
148.114
-63.4537
178.342
-60.9154
207.14
-55.5818
237.573
-59.4117
269.736
-64.8846
300.972
-63.7826
333.632
-66.0253
366.483
-66.542
399.48
-67.221
432.33
-66.4497
465.219
-65.5301
500.62
-69.6042
537.163
-71.3242
573.604
-70.4997
610.679
-71.3086
649.11
-74.4428
690.036
-81.286
732.346
-87.2648
774.76
-88.7952
816.619
-86.1114
857.002
-81.7624
896.861
-79.1754
937.154
-78.2787
978.664
-80.8229
1022.45
-87.5435
1068.77
-92.9867
1116.48
-93.2047
1165.08
-93.0016
1213.4
-92.828
1259.9
-91.0823
1305.87
-91.0252
1352.25
-93.1986
1398.61
-95.7481
1444.34
-93.9243
1489.41
-89.0872
1535.29
-87.9659
1582.38
-91.6598
1629.25
-95.2753
1675.41
-93.8559
1721.99
-92.8785
1767.3
-91.482
1809.74
-84.325
1852.19
-79.9845
1895.77
-82.08
1938.57
-83.5384
1980.9
-83.7385
2022.49
-84.86
2059.51
-81.8555
2091.45
-70.5171
2126.31
-64.3623
2168.3
-73.3097
2209.45
-78.7468
2242.72
-70.273
2269.84
-60.0651
2296.24
-54.957
2326.23
-58.5142
2356.28
-63.1248
2382.4
-57.2086
2410.23
-46.9172
2440.92
-45.6397
2462.32
-47.6468
2470.99
-33.3277
2487
-21.7444
2516.91
-37.734
2533
-44.084
2525
-6.53129
2528.17
11.689
2554.72
-32.7842
2564.38
-49.0208
2552.21
1.16691
2564.92
13.8789
2596.51
-28.1039
2593.42
-22.2195
2562.03
31.9357
2546.3
48.7461
2542.58
23.9373
2537.16
-7.0446
2537.63
-8.52105
2531.87
47.9769
2521.03
60.4072
2526.64
-36.8158
2514.65
-45.1357
2456.35
114.734
2426.62
147.772
2468.58
-29.9263
2479.48
-77.8056
2403.86
70.4147
2347.48
105.557
2363.45
26.0204
2369.65
51.211
2333.84
79.6137
2298.17
-11.3039
2268.51
-29.0748
2249.6
89.0007
2269.08
101.103
2285.7
-24.2031
2231.44
-34.5506
2152.38
102.127
2151.54
132.115
2201.28
0.758476
2184.04
-56.5455
2099.42
47.4255
2062.99
121.824
2105.93
44.5797
2127.79
-45.9504
2076.39
-19.7886
2026.24
54.9855
2045.5
54.1307
2082.58
2.24782
2058.78
1.65146
1996.04
43.3192
1978.01
41.0978
2031.69
-33.1267
2098.73
-102.721
2113.01
-78.4464
2069.55
30.4474
2014.58
124.007
1989.98
115.599
2008.34
13.7568
2061.39
-101.852
2129.47
-167.903
2182.98
-156.324
2196.27
-64.2134
2171.57
54.0007
2138.51
104.969
2126.6
53.2298
2147.19
-47.2301
2192.16
-115.799
2244.54
-124.055
2284.88
-89.1977
2300.7
-33.9955
2298.33
14.4758
2296.23
21.6003
2302.63
-7.77175
2311.29
-29.6366
2315.04
-20.9875
2310.05
2.98469
2292.47
26.583
2258.13
54.3276
2209.94
83.7753
2156.62
95.6198
2099.28
97.7367
2027.32
123.316
1929.71
181.373
1806.32
244.73
1670.61
278.368
1536.09
278.722
1410.98
259.917
1298.31
233.329
1198.18
206.982
1109.42
183.145
1031.04
160.619
962.69
140.324
902.526
122.258
849.647
106.552
802.642
95.8228
760.729
84.9328
723.304
74.8079
688.782
67.5491
656.5
62.984
626.844
60.1335
599.046
57.3545
572.548
54.2636
548.012
49.6141
525.313
45.2274
504.419
41.8874
485.09
38.125
466.711
35.7255
448.192
36.6188
429.33
38.6341
411.37
37.3796
394.38
34.4268
379.61
29.7903
365.519
28.6226
350.762
29.1637
336.983
27.3432
325.45
25.2595
315.125
22.808
302.904
22.8486
291.042
21.8573
282.453
17.4112
275.167
14.9696
267.731
15.0818
259.106
16.6581
250.006
17.1539
241.802
15.354
233.858
14.896
228.125
12.8772
222.833
13.294
216.163
15.4875
209.204
15.5666
201.23
15.5896
193.06
15.0945
186.648
12.5557
180.439
11.5964
173.629
11.6373
168.397
10.0182
163.636
11.517
158.479
12.0623
153.695
11.1181
149.512
9.28242
143.806
9.64648
137.644
9.8395
133.466
8.33394
130.386
8.58619
127.444
6.82946
123.692
6.10167
119.483
6.6268
115.797
6.2114
114.304
2.62141
113.2
2.92467
111.2
5.09722
110.161
3.99747
108.236
5.20771
104.086
6.82847
98.5102
9.4625
92.6859
11.3372
88.57
8.70067
87.028
3.10158
86.8004
0.308779
85.8796
1.32196
82.6091
4.3285
80.2522
3.11157
81.7149
-1.73715
84.0792
-2.42015
83.7446
1.45672
80.3691
6.26856
78.0281
3.95274
76.7803
0.805279
74.4372
3.36488
73.026
4.84575
71.4679
5.74254
67.889
7.88362
64.0008
7.71448
61.8955
3.73528
59.2777
3.7735
56.4457
3.68699
56.7522
-0.862279
56.7089
0.471767
54.0286
4.51231
49.7064
6.80869
46.4117
6.07344
47.8073
0.062221
50.4358
-1.99943
50.4258
0.491331
47.887
2.82206
45.3863
3.71424
45.4046
1.8275
45.5453
1.89092
43.0435
4.83602
40.2192
3.60346
39.2785
1.07364
38.3385
2.86635
37.2004
3.28556
35.6881
3.5201
32.6895
5.22593
31.3137
1.60201
31.7936
0.0287725
31.6984
1.78634
29.2933
4.10941
26.2022
5.13713
24.335
4.36376
21.7916
4.85868
19.2353
3.5856
20.4169
-3.08473
24.1757
-6.94598
25.989
-3.63672
25.489
-1.37774
24.6874
0.110325
24.691
1.0189
23.0506
3.52563
21.7956
2.74861
21.5263
1.21905
19.6175
2.7138
17.5
2.65839
17.3873
0.532039
18.5177
-0.596478
17.5294
2.5117
14.691
5.59609
13.4246
3.86234
12.7918
1.60879
11.3096
1.20857
10.6084
-0.328551
11.8805
-1.77187
14.0974
-2.24533
13.4837
1.71066
12.2298
2.67042
13.3387
-1.1143
14.2465
-2.25172
13.8024
-0.923755
14.5066
-1.32262
14.5579
0.653631
12.4076
3.87949
10.647
3.51953
8.85944
3.0765
6.95876
2.80952
6.74737
0.942505
6.79055
0.144431
6.6964
-0.100275
7.34666
-1.14689
9.17627
-4.10611
11.497
-6.07497
11.7182
-1.27376
10.6518
2.27182
8.5424
3.80567
5.86672
4.73219
4.33079
2.35727
4.9656
-2.36974
3.68029
1.12226
2.32779
2.63077
2.52945
0.912335
0.668273
3.24595
-2.10662
4.37445
-3.30995
2.75399
-0.241447
-3.82553
2.59241
-3.08137
2.46435
0.885862
0.665903
2.24558
-1.16421
2.16546
0.450131
-2.73166
2.35035
-3.75182
1.57547
-0.0359363
1.01238
-0.580805
1.75299
-2.85576
4.13977
-5.75432
8.64661
-9.50073
13.7548
-9.36284
15.7688
-2.46349
14.7365
1.97422
11.8781
4.5006
8.82095
5.70561
5.8172
5.42703
3.98638
4.28815
4.51561
0.962807
3.70903
2.08471
3.91945
0.300194
4.56681
-0.946809
3.43346
0.367065
3.15377
-1.28872
3.35826
-0.973409
5.49135
-2.97717
8.53061
-3.43541
7.98632
1.73902
4.94233
4.26256
3.88167
0.671438
4.90033
-3.04619
4.6547
-0.830288
4.084
0.991375
3.24196
2.32031
1.11319
3.51875
0.171289
1.13189
-1.5851
2.22387
-3.18237
1.45286
-1.89942
-2.61468
0.440952
-3.3324
2.68153
-2.96033
4.05894
-1.63143
3.14965
2.01109
1.90071
2.83411
0.795744
2.57517
-0.597254
2.44413
-1.32705
2.08813
-1.36696
0.997444
-1.61889
0.231219
-2.84201
1.10608
-3.41578
-0.121967
-3.08244
-0.509659
-0.219688
-3.99153
2.51826
-3.66139
2.71367
-0.469043
2.76834
-0.778796
3.47454
-1.83776
3.98699
-1.72639
3.94384
-1.20148
5.79668
-4.5768
5.84202
-0.280716
3.96142
4.78688
3.29447
3.14954
2.62824
2.97048
0.806761
4.18213
-2.37063
4.74632
-5.49016
4.25158
-6.20923
1.59289
-6.35577
1.6557
-7.07172
1.68234
-7.08339
-1.0867
-6.53094
-1.80088
-3.25167
-5.10457
-1.66002
-1.97296
-2.73409
1.83504
-3.34118
1.30147
-5.13904
3.21279
-6.70511
2.59777
-6.77855
1.05245
-5.82236
-0.767555
-5.14937
-1.36345
-5.56138
-0.413314
-5.61233
-0.696788
-3.85479
-4.04052
-2.69562
-3.63717
-4.39982
1.53068
-7.26548
4.98698
-8.6247
3.21116
-8.18064
-0.309736
-5.61656
-4.32971
-0.729813
-8.43753
2.14123
-4.7025
2.55309
-0.757351
1.55696
0.853131
-1.01155
3.58253
-2.67787
3.58346
-2.99911
2.04283
-1.84546
-2.03036
-0.494282
-3.58191
-0.209628
-1.25019
-0.768642
1.48798
-1.51491
2.50261
-2.92193
2.69218
-3.93289
1.4788
-4.80633
1.66048
-6.86857
3.55161
-8.69734
3.65173
-9.77382
3.79378
-9.3706
1.95203
-9.4926
1.37533
-10.0014
1.18127
-9.5702
-0.0421284
-9.84273
0.54547
-10.2066
-0.148807
-11.6972
1.99491
-11.5493
-0.707796
-9.29778
-4.91776
-8.52778
-2.20802
-5.44548
-5.25341
-2.01658
-5.65843
-0.348634
-3.36024
-0.720844
0.340838
-2.26364
1.82175
-3.22908
0.592698
-3.53829
0.248983
-2.4048
-2.09876
-0.905422
-3.41818
0.616774
-4.13734
2.70925
-4.41345
4.32818
-2.47928
4.90693
-1.0613
4.2956
-0.0702965
3.48017
0.0593619
3.70631
-1.12169
4.59625
-0.767425
5.88709
-0.853005
5.32252
1.96148
4.20272
3.88239
2.32546
5.4395
-1.03682
6.01747
-2.27604
1.74938
-2.94194
1.20482
-5.05246
3.66273
-5.3639
2.01985
-4.75167
0.0710479
-5.90974
2.06259
-5.56216
-0.349368
-4.94832
-1.71283
-5.26536
-0.775503
-4.93484
-1.56329
-3.68501
-3.59224
-0.525763
-6.12693
0.63056
-1.71305
-0.620723
1.95584
-1.33766
2.32951
-2.30495
3.0205
-4.4365
3.76805
-6.39371
3.15472
-9.13524
3.79164
-10.3099
1.57514
-8.06723
-3.93648
-7.01282
-1.40167
-3.56042
-4.76196
2.28081
-9.20871
4.06519
-3.03034
3.49795
-0.340417
1.15705
2.6876
-1.78736
4.59905
-4.42019
4.15898
-6.86571
3.62197
-8.58296
3.31738
-7.11746
-2.40276
-2.69667
-7.93543
-1.73493
-0.476272
-3.82325
5.29819
-5.81561
4.39906
-6.78619
2.14196
-5.92879
-1.94852
-5.12975
-3.14996
-5.10596
-1.91592
-3.91731
-2.78804
-2.52983
-2.25576
0.0325832
-2.71455
2.30722
-1.18805
1.72571
3.02741
-0.159443
3.75924
-3.69572
5.98138
-4.28699
1.05253
-2.11493
-4.69265
-2.79726
-0.463968
-4.64093
1.6516
-5.27193
0.38436
-9.07877
28.3526
-88.0652
58.3757
-87.3649
88.5287
-85.5067
117.294
-88.214
145.969
-91.7495
175.687
-90.2521
206.252
-85.7663
236.554
-89.335
266.612
-94.5644
295.105
-91.899
325.294
-95.838
357.03
-97.9013
388.426
-98.2405
421.01
-98.6561
454.943
-99.0863
490.678
-104.962
528.139
-108.405
566.318
-108.298
603.732
-108.343
640.039
-110.374
676.399
-117.273
712.81
-123.3
750.967
-126.575
792.565
-127.333
836.024
-124.847
880.047
-122.828
923.914
-121.78
967.332
-123.88
1010.69
-130.536
1055.16
-137.094
1101.23
-138.903
1148.76
-140.15
1196.21
-139.891
1241.34
-135.814
1285.96
-135.243
1331.87
-138.715
1378.42
-141.88
1424.97
-140.047
1470.96
-134.654
1517.48
-134.08
1564.7
-138.489
1611.62
-141.803
1659.45
-141.298
1706.77
-139.81
1750.96
-135.265
1794.74
-127.711
1839.45
-124.298
1881.71
-123.963
1921.94
-123.388
1964.16
-125.565
2005.27
-125.566
2040.82
-116.981
2078.36
-107.628
2123.47
-109.075
2163.53
-113.004
2191.94
-106.769
2219.97
-97.9001
2251.35
-91.0654
2280.98
-84.2408
2310.32
-87.5186
2342.08
-94.522
2374.1
-88.8282
2405.42
-77.8286
2430.46
-70.2853
2440.45
-57.2119
2450.47
-42.857
2483.95
-54.7369
2514.15
-67.5139
2504.04
-33.5035
2495.97
2.1429
2534.77
-26.5935
2560.89
-58.5853
2535.2
-22.8185
2530.25
6.88668
2566.73
-21.9922
2568.32
-29.2454
2535.36
11.4673
2533.66
34.4008
2546.36
36.5518
2529.68
40.875
2511.56
11.6845
2513.6
-9.69338
2514.64
47.5453
2508.91
66.3613
2488.16
-15.7472
2443.2
0.78844
2420.41
138.429
2449.71
118.756
2457.85
-37.7976
2396.24
-15.714
2340.96
126.568
2348.7
98.4108
2359.93
15.4422
2327.28
84.4054
2274.98
132.234
2230.69
33.5599
2220.22
-17.8823
2256.91
53.2443
2273.46
84.9445
2200.03
49.7569
2104.99
61.0777
2109.53
98.4574
2176.58
65.5851
2160.21
17.5159
2057.75
46.5309
2013.04
93.0079
2069.89
65.5104
2102.83
12.0779
2036.21
21.062
1964.48
52.6225
1984.89
35.3572
2043.73
-4.03038
2034.24
12.3805
1966.23
70.2978
1933.62
76.5873
1970.71
4.66927
2022.22
-84.0194
2029.39
-109.377
1994.44
-42.9748
1956.05
69.3274
1941.14
139.545
1953.46
103.88
1988.25
-20.5818
2034.81
-148.084
2070.7
-203.504
2071.44
-156.609
2041.27
-33.5944
2021.02
74.7699
2044.75
81.6767
2097.29
0.954744
2141.92
-91.6691
2167.2
-140.881
2181.85
-138.401
2185.19
-92.3626
2177.66
-26.3309
2178.23
14.0726
2200.73
-0.926103
2231.77
-39.1261
2249.92
-48.1983
2249.44
-21.1345
2238.15
13.1069
2218.49
44.6342
2183.93
86.8238
2135.46
129.654
2079.07
148.869
2010.13
163.114
1916.88
212.463
1799.4
294.684
1671.13
368.618
1546.54
398.512
1431.51
390.06
1326.96
361.149
1231.95
325.809
1146.24
290.548
1069.14
258.549
999.586
228.856
938.083
200.833
882.545
177.069
832.707
155.819
788.575
139.517
749.011
124.203
712.68
110.923
678.044
102.007
645.697
95.2177
617.198
88.5959
590.768
83.6395
565.166
79.8223
541.434
73.3981
518.989
67.724
498.195
62.6821
478.861
57.3982
460.085
54.4898
441.767
54.9331
423.647
56.736
406.442
54.489
390.299
50.4764
375.897
44.1338
361.79
42.7676
347.212
43.8128
333.896
40.689
323.195
35.9312
313.938
32.1536
302.106
34.736
289.962
33.9443
280.431
26.7899
272.061
23.2562
264.672
22.5468
255.972
25.3216
246.232
26.9597
237.322
24.277
229.139
23.121
224.365
17.6615
220.517
17.1663
214.981
21.0905
208.448
22.1552
200.649
23.4118
192.379
23.3395
185.579
19.3636
179.26
17.9153
172.155
18.7222
167.401
14.7938
163.459
15.5078
158.207
17.3283
153.883
15.4882
150.635
12.4455
145.084
15.2095
138.207
16.6588
133.639
12.8433
130.844
11.2618
128.092
9.58587
124.36
9.77849
120.259
10.7778
116.409
10.0161
115.089
3.93654
113.453
4.53704
110.09
8.48721
108.747
5.37842
108.043
5.87167
104.847
9.96132
99.6345
14.5644
93.6344
17.2592
88.2694
14.1265
86.4889
4.99521
86.6627
0.194241
85.3519
2.7553
81.5493
8.14842
78.7808
5.90937
80.2408
-3.33544
82.4765
-4.72837
82.4572
1.53238
78.7705
9.96136
75.8459
7.02388
75.0325
1.66429
72.8912
5.61547
71.799
5.9009
70.9628
6.51346
67.3148
11.5305
63.4049
11.6504
61.6382
5.54917
58.5948
6.90076
55.0958
7.10735
55.049
-1.01639
55.0125
0.460525
52.0495
7.43977
47.1443
11.7019
44.0921
9.17454
45.5724
-1.47079
48.4643
-4.89945
49.3411
-0.400756
46.7642
5.40388
44.4224
6.02043
45.4709
0.68357
46.0036
1.36975
43.571
7.21469
41.2094
5.93725
39.84
2.40428
37.8467
4.84272
36.3987
4.6884
34.6069
5.23345
31.5871
8.18927
30.7919
2.35916
31.8044
-1.02052
32.2347
1.30346
30.3959
5.89731
28.0232
7.56531
26.1876
6.18235
23.1628
7.79111
20.4404
6.2349
21.3685
-4.09458
23.5814
-9.3068
23.2366
-3.36191
22.0878
-0.407824
21.723
0.361689
22.106
0.572519
21.2044
4.35448
20.537
3.25969
20.627
1.02171
19.1243
4.20871
17.5464
4.13492
17.2057
0.783907
17.9185
-1.32175
16.8931
3.31066
14.2692
8.07829
13.557
4.47566
13.1605
1.92508
12.0276
2.17853
12.733
-1.15934
14.3547
-3.50035
15.3196
-3.26874
14.45
2.47822
13.5524
3.39995
14.9956
-2.6113
15.9317
-3.30421
15.5541
-0.476367
16.6498
-2.49211
16.5726
0.745292
14.0753
6.47344
12.8798
4.73547
11.622
4.37639
10.0038
4.45955
9.83343
1.10715
9.55126
0.49326
9.73963
-0.330766
9.9236
-1.32333
10.1644
-4.42856
12.2947
-8.257
12.3443
-1.44104
10.7598
3.64844
8.63513
5.79015
4.97454
8.16945
2.87856
4.27584
3.61403
-3.36376
1.9006
2.71774
0.177306
4.37805
0.408719
0.621145
-0.759749
4.4443
-3.10161
6.65885
-4.30826
3.94132
-1.22287
-7.05068
2.1766
-6.61864
2.96511
0.0133821
1.90922
3.2678
0.40358
3.57139
1.71081
-4.18021
3.17894
-5.23967
2.21379
0.905914
1.65717
-0.0103552
2.73566
-3.98613
4.47483
-7.60455
6.5242
-11.6741
9.97124
-12.8047
11.2819
-3.89866
10.2071
3.00769
8.03672
6.61176
5.62681
8.0746
3.22599
7.77663
1.9887
5.49852
3.57593
-0.664854
3.89392
1.71824
4.86988
-0.81354
6.18435
-2.32041
5.1528
1.36038
4.82613
-0.951561
5.2376
-1.33219
6.65557
-4.40444
8.39793
-5.22735
7.49359
2.5116
4.07512
7.55411
2.54388
2.13008
4.12848
-4.75272
4.31306
-1.1332
3.33942
1.84539
1.87704
3.68319
-0.334178
5.72081
-1.31753
1.89161
-3.71396
4.46191
-5.45834
3.00311
-3.81575
-4.28895
-1.67873
-5.32628
0.307566
-4.84846
1.8526
-3.15104
1.51993
2.2695
0.700552
3.57139
-0.120641
3.32647
-0.79121
3.18916
-1.62308
2.9293
-1.89403
1.33136
-1.70574
0.0968973
-2.3871
1.83988
-2.48292
0.15
-2.03076
-0.980765
0.267305
-6.35426
2.89896
-6.32323
3.52891
-1.01828
3.47258
-0.818696
4.2599
-2.65655
4.19464
-1.70335
3.97635
-0.882309
6.48633
-7.182
6.61431
-0.422304
4.29546
7.16602
3.10817
4.29777
2.80781
3.16515
2.00506
5.03557
-1.6688
8.451
-5.18385
7.82437
-5.21087
1.64421
-5.38776
1.77418
-6.64214
2.94581
-6.26721
-1.47025
-4.91295
-3.12878
-2.48736
-7.59199
-2.23928
-2.23998
-3.13903
2.77631
-2.68981
0.840111
-3.83371
4.47692
-5.02855
4.22678
-4.84719
0.961262
-3.4818
-2.05829
-1.88788
-3.00312
-2.23827
-0.0868823
-3.52651
0.472038
-2.93993
-4.60156
-2.15465
-4.4416
-3.80608
3.14392
-7.23629
8.44358
-8.75595
4.75325
-8.86562
-0.120589
-7.71484
-5.47959
-3.19116
-12.896
-0.16093
-7.68771
0.640689
-1.55042
0.125542
1.31886
-2.29213
6.05002
-3.51203
4.84262
-4.39811
2.97933
-3.81831
-2.55934
-1.54752
-5.70892
-0.727065
-1.99772
-1.41142
2.14495
-3.00143
4.05769
-4.74073
4.3666
-4.71317
1.38109
-4.83274
1.82744
-6.36397
5.11659
-7.79798
5.1026
-8.50433
4.66376
-7.61021
1.18259
-7.19535
0.989803
-6.93182
0.92829
-6.67457
-0.188254
-7.45868
1.39404
-7.44061
-0.0944774
-9.36758
3.98366
-10.1958
0.184804
-7.97911
-7.02761
-7.62959
-2.50119
-5.69733
-7.15419
-2.26702
-9.00931
-0.3972
-5.18149
-0.997195
0.917557
-2.47721
3.36561
-3.52617
1.6025
-4.0807
0.794887
-3.52208
-2.66642
-2.47611
-4.47039
-0.965887
-5.71026
0.86172
-6.14682
1.91289
-3.50686
2.31816
-1.5401
1.74963
0.518984
1.27976
0.510695
1.99116
-1.82574
2.9038
-1.72592
4.36406
-2.33506
4.12048
2.20237
3.26548
4.61881
1.54977
7.12967
-1.75783
9.25437
-1.89539
1.77345
-1.76968
1.02842
-4.117
6.09414
-4.71654
2.62009
-3.73867
-0.956561
-4.10322
2.33815
-3.47632
-1.01655
-2.84749
-2.42084
-2.91344
-0.683282
-2.71197
-1.82408
-1.08655
-5.13539
1.63414
-8.78835
1.69514
-1.7084
0.189696
3.48809
-1.04457
3.61861
-1.96614
4.12216
-3.30896
5.30458
-4.95827
4.82702
-7.93806
6.85365
-8.69415
2.39035
-5.423
-7.21939
-4.59962
-2.22027
-2.54122
-6.77053
2.2968
-14.0406
3.89592
-4.66239
3.55621
-0.0499396
1.87717
4.31712
-0.458331
6.95563
-3.34344
7.04613
-6.81162
7.06786
-8.94671
5.47415
-7.38987
-3.87646
-3.58752
-11.7763
-3.55326
-0.513267
-6.35463
8.16845
-8.56116
6.82802
-9.24414
2.76629
-7.33912
-3.78121
-5.30626
-4.99087
-4.89606
-2.20145
-3.61027
-4.07083
-2.18645
-3.70758
-0.195106
-4.6953
2.60718
-4.00937
3.2768
2.34374
1.96566
5.12071
-1.59262
9.61802
-1.96243
1.48587
1.25797
-7.86211
0.985032
-0.19591
-2.5555
5.1574
-4.88529
2.66453
-13.9893
27.5666
-115.282
55.6987
-115.147
85.0034
-114.46
113.265
-116.124
139.571
-117.702
167.459
-117.787
198.22
-116.174
227.533
-118.296
256.776
-123.455
286.05
-120.821
315.903
-125.341
347.057
-128.704
377.331
-128.164
409.505
-130.48
443.43
-132.663
477.454
-138.637
512.837
-143.438
550.224
-145.332
588.133
-145.902
625.519
-147.414
661.828
-153.238
697.403
-158.531
735.238
-164.062
777.72
-169.465
822.761
-169.539
867.554
-167.274
912.076
-165.961
956.317
-167.787
999.599
-173.487
1042.49
-179.651
1086.47
-182.541
1132.24
-185.563
1178.2
-185.481
1222.84
-180.096
1268.7
-180.739
1318.1
-187.758
1369.2
-192.598
1418.96
-189.394
1466.45
-181.739
1512.58
-179.845
1557.18
-182.743
1601.48
-185.748
1647.56
-187.016
1693.3
-185.169
1738.22
-179.778
1784.58
-173.679
1830.12
-169.446
1872.71
-166.192
1914.15
-164.466
1955.25
-166.301
1994.28
-164.203
2033.89
-156.17
2079.99
-153.328
2127.34
-156.077
2162.91
-148.215
2188.73
-132.185
2216.95
-125.735
2251.14
-124.887
2284.61
-117.373
2309.41
-112.012
2335.6
-120.381
2375.03
-127.83
2408.94
-111.295
2420.91
-81.7933
2433.33
-69.1565
2460.13
-69.2366
2484.26
-78.4252
2498.18
-80.8543
2505.55
-40.308
2517.04
-8.94682
2544.86
-53.9987
2562
-75.188
2546.39
-6.69641
2541.96
11.7976
2561.27
-40.686
2548.19
-15.4503
2520.22
40.087
2544.07
11.1684
2573.96
7.24734
2541.31
73.791
2495.88
57.6798
2496.18
-9.36518
2518.21
26.0906
2513.99
71.0339
2462.41
36.3694
2411.1
53.1147
2431.92
118.125
2470.39
80.7019
2418.76
13.9552
2342.03
61.8298
2351.73
117.706
2377.49
73.2105
2334.45
59.0582
2290.38
129.018
2281.11
141.864
2258.15
56.8626
2239.69
1.44736
2245.6
48.2135
2205.84
125.327
2121.96
133.957
2106.02
77.7359
2166.46
38.729
2168.74
63.9109
2076.29
110.476
2018.14
105.325
2058.07
53.9643
2095.04
29.0523
2045.8
61.7811
1974.87
92.4388
1969.87
58.3724
2003.74
2.13304
1997.66
2.73268
1950.53
60.1946
1927.07
94.1226
1946.68
57.5284
1963.73
-11.8053
1944.3
-64.1241
1903.88
-68.6422
1877.94
-16.4778
1883.56
64.6311
1909.75
114.095
1938.53
75.1293
1964.1
-45.991
1977.32
-161.068
1959.24
-185.069
1913.78
-110.593
1889.87
-8.45994
1929.09
35.8969
2011.09
0.109973
2077.67
-65.3029
2097.53
-111.272
2081
-124.13
2055.23
-112.457
2044.95
-81.7008
2067.52
-48.5109
2119.69
-37.9342
2168.6
-49.9781
2185.8
-56.7989
2182.17
-45.1852
2182.82
-22.7891
2185.46
9.04503
2164.17
64.0559
2110.43
138.429
2043.62
193.626
1973.73
215.756
1886.63
246.362
1772.9
322.303
1646.1
416.797
1526.15
483.779
1421.29
499.603
1327.64
480.159
1242.38
443.385
1163.35
402.504
1090.31
361.552
1023.94
323.405
963.178
288.53
907.821
255.359
857.205
227.088
811.524
201.149
770.363
180.44
733.493
160.916
698.771
145.442
665.337
135.246
634.156
126.322
606.727
115.806
581.151
109.011
555.787
105.216
532.711
96.4041
510.952
89.5144
490.442
83.0805
471.708
76.102
453.7
72.4389
436.109
72.5168
417.909
74.7749
400.837
71.5902
385.968
65.4123
372.147
57.8887
357.474
57.183
343.332
57.7834
331.054
52.7665
320.134
46.7596
310.603
41.5125
300.112
45.1412
288.755
45.1386
278.192
36.9818
268.397
33.0532
260.291
30.6243
252.247
33.3792
242.974
36.1543
233.969
33.31
225.943
31.2239
221.12
22.5014
217.403
20.9691
212.496
26.0868
206.003
28.7604
198.464
31.0603
190.876
31.0137
184.053
26.206
177.483
24.4919
171.144
25.1263
167.115
18.7722
163.131
19.3544
157.963
22.346
153.856
19.2997
151.058
15.4576
146.381
19.9998
139.857
23.1818
134.715
17.8166
131.55
14.38
128.218
12.9693
124.563
13.3758
121.27
13.8233
117.101
14.1002
114.608
6.2967
113.241
5.85979
109.654
11.8749
106.647
8.11636
105.663
6.79029
104.139
11.4185
100.56
18.064
95.0739
22.7021