/*--------------------------------*- C++ -*----------------------------------*\
| =========                 |                                                 |
| \\      /  F ield         | OpenFOAM: The Open Source CFD Toolbox           |
|  \\    /   O peration     | Version:  v2012                                 |
|   \\  /    A nd           | Website:  www.openfoam.com                      |
|    \\/     M anipulation  |                                                 |
\*---------------------------------------------------------------------------*/
FoamFile
{
    version     2.0;
    format      ascii;
    class       volScalarField;
    location    "450";
    object      T;
}
// * * * * * * * * * * * * * * * * * * * * * * * * * * * * * * * * * * * * * //

dimensions      [0 0 0 1 0 0 0];


internalField   nonuniform List<scalar> 
65536
(
294.016
294.018
294.021
294.025
294.03
294.036
294.043
294.052
294.062
294.073
294.086
294.099
294.113
294.127
294.143
294.16
294.177
294.195
294.214
294.233
294.252
294.27
294.288
294.304
294.318
294.332
294.347
294.361
294.377
294.392
294.405
294.417
294.429
294.44
294.449
294.458
294.466
294.472
294.477
294.481
294.484
294.487
294.488
294.487
294.485
294.481
294.476
294.471
294.466
294.459
294.45
294.44
294.428
294.415
294.4
294.383
294.366
294.348
294.329
294.308
294.286
294.264
294.24
294.215
294.188
294.162
294.136
294.108
294.078
294.051
294.025
293.992
293.961
293.931
293.9
293.861
293.825
293.793
293.761
293.724
293.686
293.648
293.611
293.569
293.526
293.484
293.45
293.407
293.354
293.311
293.275
293.234
293.184
293.134
293.086
293.035
292.985
292.935
292.873
292.809
292.753
292.703
292.645
292.578
292.516
292.463
292.41
292.349
292.289
292.233
292.181
292.122
292.057
291.997
291.938
291.872
291.799
291.728
291.665
291.605
291.54
291.471
291.405
291.348
291.297
291.25
291.204
291.155
291.107
291.062
291.021
290.985
290.956
290.938
290.936
290.949
290.98
291.035
291.114
291.233
291.408
291.649
291.952
292.345
292.804
293.352
293.962
294.61
295.277
295.945
296.583
297.163
297.673
298.107
298.462
298.737
298.936
299.07
299.157
299.213
299.252
299.276
299.291
299.3
299.304
299.306
299.306
299.303
299.299
299.293
299.287
299.28
299.276
299.27
299.269
299.269
299.269
299.269
299.271
299.273
299.276
299.278
299.281
299.284
299.287
299.29
299.291
299.292
299.292
299.292
299.292
299.291
299.289
299.288
299.288
299.288
299.289
299.289
299.289
299.289
299.285
299.279
299.273
299.264
299.258
299.251
299.246
299.245
299.243
299.244
299.247
299.249
299.252
299.253
299.254
299.252
299.251
299.251
299.249
299.248
299.244
299.242
299.242
299.241
299.239
299.238
299.235
299.235
299.231
299.228
299.226
299.225
299.225
299.225
299.227
299.231
299.232
299.235
299.237
299.238
299.239
299.241
299.24
299.243
299.245
299.248
299.249
299.249
299.25
299.248
299.247
299.247
299.245
299.244
299.241
299.238
299.237
299.235
299.234
299.235
299.234
299.237
299.238
299.238
299.236
299.233
299.229
299.224
299.218
299.217
299.212
299.213
299.212
299.213
299.215
299.221
299.222
299.227
299.232
299.236
299.237
299.24
299.243
299.247
299.252
299.255
299.258
299.26
299.26
299.258
299.255
299.25
299.248
299.244
299.242
299.239
299.238
299.239
299.24
299.241
299.242
299.243
299.243
299.243
299.24
299.236
299.23
299.226
299.222
299.221
299.223
299.224
299.227
299.229
299.231
299.231
299.231
299.231
299.231
299.232
299.236
299.239
299.242
299.245
299.246
299.246
299.245
299.243
299.241
299.238
299.234
299.23
299.23
299.229
299.23
299.235
299.238
299.24
299.241
299.241
299.238
299.238
299.238
299.238
299.241
299.244
299.247
299.248
299.247
299.248
299.245
299.243
299.24
299.237
299.235
299.233
299.229
299.227
299.226
299.226
299.227
299.229
299.228
299.228
299.229
299.228
299.225
299.224
299.223
299.226
299.229
299.234
299.24
299.244
299.248
299.249
299.252
299.253
299.254
299.254
299.254
299.253
299.252
299.251
299.248
299.243
299.236
299.228
299.219
299.211
299.201
299.194
299.191
299.194
299.195
299.199
299.204
299.214
299.225
299.234
299.24
299.247
299.25
299.251
299.252
299.252
299.252
299.251
299.249
299.248
299.245
299.241
299.237
299.233
299.23
299.228
299.226
299.225
299.224
299.226
299.226
299.225
299.222
299.219
299.216
299.216
299.217
299.22
299.224
299.228
299.231
299.234
299.234
299.233
299.232
299.233
299.232
299.234
299.233
299.233
299.232
299.229
299.227
299.223
299.22
299.218
299.217
299.215
299.217
299.219
299.22
299.223
299.225
299.227
299.229
299.232
299.234
299.238
299.24
299.242
299.243
299.244
299.245
299.246
299.245
299.242
299.24
299.237
299.235
299.231
299.229
299.226
299.225
299.224
299.222
299.221
299.222
299.221
299.223
299.223
299.224
299.224
299.221
299.218
299.216
299.213
299.21
299.208
299.206
299.205
299.203
299.204
299.206
299.209
299.211
299.215
299.217
299.218
299.219
299.218
299.216
299.212
299.209
299.207
299.204
299.2
299.197
299.197
299.195
299.194
299.193
299.193
293.907
293.907
293.909
293.915
293.921
293.926
293.932
293.942
293.953
293.964
293.977
293.99
294.004
294.019
294.034
294.052
294.07
294.088
294.107
294.127
294.149
294.17
294.188
294.205
294.22
294.234
294.249
294.265
294.283
294.3
294.314
294.327
294.339
294.35
294.36
294.37
294.379
294.384
294.388
294.392
294.395
294.398
294.399
294.397
294.394
294.388
294.381
294.376
294.37
294.362
294.353
294.343
294.329
294.31
294.296
294.283
294.266
294.245
294.224
294.203
294.182
294.159
294.131
294.105
294.084
294.058
294.021
293.992
293.976
293.948
293.902
293.878
293.869
293.831
293.774
293.75
293.729
293.683
293.636
293.616
293.587
293.541
293.485
293.457
293.42
293.38
293.318
293.262
293.241
293.204
293.171
293.121
293.064
293.02
292.975
292.929
292.871
292.807
292.744
292.69
292.636
292.58
292.512
292.442
292.388
292.337
292.277
292.214
292.152
292.109
292.052
291.985
291.924
291.869
291.808
291.743
291.672
291.606
291.538
291.468
291.394
291.326
291.272
291.219
291.17
291.116
291.06
291.012
290.968
290.923
290.877
290.838
290.814
290.797
290.782
290.795
290.831
290.887
290.966
291.056
291.201
291.432
291.727
292.128
292.591
293.161
293.814
294.489
295.181
295.88
296.534
297.113
297.604
298.02
298.351
298.608
298.796
298.927
299.015
299.077
299.112
299.138
299.156
299.162
299.168
299.167
299.164
299.163
299.157
299.151
299.141
299.133
299.122
299.126
299.124
299.123
299.12
299.127
299.129
299.134
299.135
299.136
299.14
299.143
299.148
299.146
299.151
299.153
299.153
299.156
299.151
299.15
299.146
299.143
299.145
299.144
299.145
299.143
299.146
299.146
299.144
299.141
299.132
299.126
299.115
299.106
299.104
299.088
299.09
299.09
299.099
299.108
299.115
299.115
299.11
299.112
299.11
299.104
299.103
299.093
299.098
299.099
299.092
299.096
299.098
299.097
299.096
299.084
299.086
299.088
299.085
299.084
299.085
299.085
299.085
299.084
299.094
299.096
299.098
299.099
299.094
299.088
299.101
299.101
299.106
299.104
299.107
299.111
299.106
299.108
299.11
299.107
299.108
299.105
299.103
299.094
299.085
299.084
299.086
299.088
299.096
299.094
299.094
299.096
299.097
299.094
299.086
299.075
299.074
299.06
299.063
299.057
299.063
299.067
299.073
299.065
299.081
299.086
299.089
299.091
299.098
299.097
299.101
299.102
299.104
299.116
299.121
299.123
299.122
299.119
299.114
299.115
299.104
299.102
299.1
299.1
299.099
299.098
299.098
299.103
299.102
299.1
299.105
299.103
299.102
299.095
299.086
299.076
299.075
299.076
299.072
299.081
299.085
299.09
299.094
299.095
299.09
299.09
299.089
299.094
299.093
299.099
299.103
299.105
299.108
299.109
299.106
299.106
299.1
299.096
299.092
299.086
299.075
299.082
299.09
299.09
299.097
299.1
299.102
299.099
299.1
299.093
299.089
299.096
299.103
299.106
299.105
299.102
299.104
299.095
299.099
299.102
299.1
299.096
299.089
299.085
299.087
299.082
299.078
299.082
299.087
299.088
299.094
299.094
299.09
299.089
299.088
299.083
299.083
299.076
299.085
299.095
299.101
299.106
299.108
299.112
299.112
299.115
299.116
299.119
299.114
299.113
299.114
299.108
299.106
299.103
299.097
299.091
299.081
299.065
299.055
299.047
299.044
299.039
299.048
299.052
299.061
299.072
299.083
299.093
299.105
299.107
299.11
299.111
299.11
299.112
299.111
299.109
299.113
299.105
299.101
299.099
299.092
299.093
299.087
299.085
299.081
299.075
299.083
299.08
299.084
299.084
299.082
299.076
299.073
299.066
299.073
299.079
299.083
299.089
299.092
299.091
299.097
299.094
299.091
299.084
299.091
299.09
299.093
299.094
299.093
299.09
299.083
299.083
299.079
299.075
299.073
299.077
299.076
299.076
299.084
299.083
299.085
299.084
299.081
299.086
299.093
299.094
299.098
299.101
299.101
299.104
299.104
299.103
299.1
299.103
299.1
299.099
299.092
299.089
299.081
299.083
299.086
299.084
299.081
299.079
299.075
299.083
299.083
299.087
299.088
299.083
299.082
299.078
299.067
299.068
299.068
299.066
299.061
299.054
299.06
299.065
299.065
299.071
299.074
299.073
299.078
299.081
299.08
299.078
299.076
299.076
299.068
299.065
299.064
299.061
299.057
299.046
299.051
299.049
299.049
299.043
293.757
293.758
293.76
293.766
293.772
293.778
293.785
293.795
293.808
293.821
293.835
293.85
293.866
293.883
293.901
293.922
293.943
293.963
293.985
294.009
294.033
294.058
294.08
294.099
294.117
294.135
294.154
294.173
294.192
294.211
294.229
294.244
294.257
294.269
294.28
294.291
294.3
294.305
294.308
294.311
294.315
294.317
294.317
294.314
294.307
294.297
294.287
294.278
294.268
294.258
294.246
294.231
294.212
294.192
294.176
294.158
294.135
294.109
294.085
294.062
294.04
294.012
293.981
293.951
293.923
293.89
293.852
293.822
293.798
293.759
293.714
293.694
293.683
293.632
293.574
293.549
293.518
293.454
293.404
293.398
293.374
293.309
293.243
293.218
293.212
293.157
293.053
292.996
293.005
292.996
292.92
292.848
292.806
292.746
292.72
292.694
292.636
292.535
292.461
292.444
292.402
292.301
292.219
292.187
292.149
292.073
291.977
291.948
291.905
291.84
291.788
291.726
291.664
291.616
291.556
291.475
291.399
291.329
291.262
291.18
291.096
291.039
290.989
290.948
290.898
290.85
290.791
290.721
290.661
290.616
290.586
290.557
290.523
290.496
290.49
290.48
290.489
290.539
290.619
290.718
290.879
291.124
291.447
291.852
292.336
292.91
293.544
294.252
294.96
295.719
296.43
296.975
297.463
297.847
298.156
298.389
298.559
298.679
298.756
298.8
298.843
298.864
298.873
298.882
298.879
298.881
298.889
298.886
298.88
298.865
298.853
298.842
298.832
298.826
298.833
298.836
298.836
298.832
298.841
298.843
298.847
298.853
298.855
298.856
298.851
298.865
298.868
298.866
298.868
298.86
298.869
298.864
298.863
298.859
298.856
298.858
298.855
298.858
298.861
298.865
298.863
298.854
298.844
298.828
298.82
298.817
298.802
298.809
298.802
298.806
298.815
298.824
298.82
298.821
298.825
298.816
298.814
298.818
298.812
298.813
298.809
298.806
298.811
298.811
298.818
298.817
298.807
298.804
298.803
298.799
298.796
298.797
298.793
298.798
298.798
298.801
298.802
298.813
298.818
298.814
298.81
298.809
298.802
298.814
298.815
298.826
298.825
298.82
298.827
298.822
298.817
298.822
298.822
298.819
298.812
298.807
298.801
298.804
298.806
298.808
298.801
298.812
298.817
298.815
298.81
298.803
298.795
298.79
298.777
298.777
298.771
298.774
298.78
298.783
298.77
298.777
298.778
298.798
298.807
298.81
298.801
298.803
298.807
298.817
298.829
298.829
298.837
298.844
298.845
298.838
298.827
298.816
298.822
298.82
298.815
298.809
298.807
298.811
298.818
298.813
298.816
298.822
298.817
298.825
298.819
298.814
298.801
298.784
298.79
298.79
298.797
298.793
298.803
298.809
298.805
298.807
298.811
298.802
298.8
298.797
298.81
298.818
298.822
298.824
298.825
298.821
298.823
298.814
298.812
298.809
298.803
298.791
298.795
298.788
298.787
298.8
298.804
298.813
298.814
298.814
298.801
298.801
298.797
298.805
298.811
298.815
298.823
298.827
298.816
298.818
298.817
298.813
298.806
298.801
298.795
298.797
298.785
298.791
298.798
298.798
298.798
298.799
298.791
298.793
298.803
298.802
298.797
298.793
298.781
298.792
298.797
298.807
298.821
298.827
298.824
298.822
298.828
298.831
298.831
298.828
298.834
298.826
298.814
298.821
298.818
298.811
298.802
298.787
298.777
298.772
298.75
298.725
298.735
298.751
298.756
298.766
298.772
298.783
298.801
298.811
298.81
298.816
298.825
298.824
298.822
298.822
298.825
298.826
298.81
298.819
298.815
298.803
298.799
298.79
298.797
298.794
298.789
298.79
298.788
298.802
298.798
298.793
298.785
298.785
298.776
298.783
298.784
298.788
298.794
298.799
298.809
298.813
298.805
298.803
298.796
298.795
298.795
298.808
298.811
298.809
298.801
298.8
298.798
298.785
298.782
298.783
298.782
298.779
298.786
298.791
298.788
298.798
298.8
298.799
298.797
298.805
298.805
298.812
298.81
298.807
298.811
298.813
298.819
298.82
298.821
298.809
298.805
298.803
298.804
298.796
298.792
298.793
298.793
298.797
298.798
298.795
298.793
298.788
298.795
298.791
298.794
298.801
298.796
298.785
298.784
298.784
298.787
298.783
298.776
298.771
298.771
298.773
298.784
298.784
298.79
298.794
298.798
298.8
298.8
298.797
298.79
298.775
298.778
298.777
298.774
298.772
298.764
298.764
298.759
298.762
298.757
298.756
293.731
293.733
293.736
293.741
293.748
293.755
293.763
293.775
293.789
293.803
293.82
293.838
293.856
293.876
293.898
293.922
293.947
293.972
293.996
294.022
294.05
294.077
294.102
294.125
294.145
294.165
294.184
294.205
294.226
294.246
294.264
294.281
294.294
294.307
294.318
294.332
294.343
294.347
294.346
294.347
294.353
294.357
294.357
294.352
294.341
294.327
294.314
294.303
294.292
294.281
294.266
294.245
294.221
294.202
294.183
294.157
294.125
294.095
294.066
294.042
294.019
293.987
293.947
293.908
293.866
293.828
293.797
293.755
293.701
293.66
293.634
293.597
293.547
293.512
293.467
293.409
293.348
293.294
293.241
293.196
293.165
293.115
293.053
293.001
292.983
292.905
292.824
292.789
292.786
292.74
292.636
292.568
292.515
292.45
292.419
292.406
292.355
292.233
292.157
292.136
292.089
291.971
291.893
291.847
291.799
291.727
291.645
291.606
291.54
291.484
291.448
291.378
291.305
291.259
291.21
291.147
291.07
290.993
290.917
290.824
290.688
290.634
290.619
290.592
290.555
290.483
290.409
290.329
290.276
290.231
290.192
290.162
290.137
290.104
290.058
290.036
290.055
290.124
290.231
290.39
290.607
290.898
291.245
291.675
292.178
292.754
293.413
294.116
294.9
295.647
296.289
296.817
297.272
297.625
297.904
298.112
298.26
298.356
298.417
298.465
298.486
298.507
298.519
298.512
298.505
298.513
298.51
298.507
298.499
298.486
298.462
298.446
298.404
298.438
298.455
298.456
298.436
298.442
298.457
298.472
298.468
298.446
298.463
298.474
298.478
298.48
298.487
298.495
298.489
298.495
298.488
298.489
298.474
298.456
298.467
298.469
298.468
298.454
298.474
298.486
298.487
298.481
298.464
298.444
298.442
298.428
298.418
298.376
298.393
298.378
298.418
298.435
298.452
298.446
298.433
298.428
298.415
298.421
298.424
298.389
298.423
298.423
298.395
298.426
298.434
298.434
298.428
298.381
298.421
298.428
298.424
298.417
298.422
298.419
298.42
298.409
298.434
298.443
298.443
298.435
298.418
298.373
298.417
298.425
298.429
298.43
298.443
298.448
298.437
298.441
298.447
298.449
298.451
298.45
298.442
298.419
298.374
298.4
298.413
298.416
298.431
298.432
298.435
298.44
298.434
298.427
298.407
298.376
298.382
298.342
298.367
298.341
298.383
298.388
298.386
298.346
298.39
298.407
298.42
298.415
298.412
298.427
298.435
298.43
298.419
298.459
298.475
298.477
298.472
298.464
298.453
298.445
298.433
298.43
298.435
298.429
298.413
298.427
298.428
298.438
298.427
298.402
298.433
298.44
298.451
298.438
298.411
298.355
298.391
298.4
298.378
298.412
298.42
298.423
298.434
298.429
298.42
298.418
298.417
298.417
298.421
298.436
298.449
298.456
298.453
298.451
298.442
298.445
298.435
298.431
298.415
298.399
298.359
298.387
298.405
298.411
298.426
298.434
298.437
298.432
298.422
298.406
298.375
298.418
298.44
298.45
298.45
298.439
298.429
298.39
298.421
298.434
298.423
298.395
298.409
298.407
298.411
298.401
298.383
298.401
298.417
298.424
298.428
298.426
298.422
298.431
298.428
298.413
298.402
298.373
298.409
298.439
298.448
298.45
298.454
298.45
298.45
298.451
298.461
298.46
298.444
298.444
298.439
298.432
298.434
298.432
298.425
298.419
298.405
298.383
298.356
298.287
298.343
298.329
298.367
298.367
298.367
298.399
298.42
298.435
298.446
298.448
298.445
298.446
298.439
298.445
298.445
298.435
298.443
298.429
298.426
298.422
298.414
298.406
298.412
298.412
298.397
298.369
298.404
298.409
298.421
298.42
298.416
298.397
298.38
298.366
298.39
298.405
298.411
298.429
298.43
298.428
298.436
298.43
298.416
298.374
298.413
298.419
298.424
298.428
298.43
298.419
298.412
298.411
298.403
298.388
298.388
298.383
298.397
298.404
298.409
298.42
298.427
298.417
298.376
298.412
298.434
298.43
298.434
298.435
298.423
298.408
298.423
298.431
298.422
298.421
298.422
298.414
298.418
298.407
298.368
298.408
298.426
298.423
298.412
298.405
298.401
298.417
298.419
298.426
298.427
298.422
298.424
298.408
298.359
298.391
298.401
298.404
298.392
298.351
298.383
298.403
298.405
298.41
298.405
298.413
298.415
298.416
298.419
298.42
298.412
298.399
298.386
298.396
298.4
298.394
298.378
298.34
298.374
298.374
298.364
298.327
293.776
293.777
293.782
293.788
293.794
293.802
293.812
293.825
293.843
293.857
293.878
293.899
293.919
293.944
293.971
294.001
294.032
294.063
294.092
294.121
294.153
294.187
294.22
294.25
294.273
294.291
294.311
294.335
294.362
294.39
294.413
294.433
294.447
294.454
294.467
294.484
294.496
294.498
294.492
294.49
294.492
294.494
294.492
294.484
294.47
294.452
294.434
294.418
294.402
294.387
294.369
294.343
294.316
294.292
294.267
294.232
294.192
294.157
294.122
294.089
294.064
294.033
293.978
293.914
293.87
293.831
293.796
293.742
293.669
293.614
293.596
293.556
293.484
293.437
293.403
293.334
293.257
293.194
293.127
293.061
293.039
292.995
292.917
292.852
292.782
292.718
292.653
292.634
292.591
292.503
292.44
292.371
292.282
292.238
292.18
292.122
292.06
291.97
291.891
291.829
291.783
291.733
291.617
291.53
291.477
291.451
291.399
291.279
291.209
291.195
291.136
291.031
290.948
290.881
290.84
290.746
290.67
290.56
290.498
290.378
290.25
290.196
290.21
290.194
290.141
290.066
289.946
289.83
289.786
289.75
289.736
289.713
289.67
289.617
289.583
289.606
289.673
289.777
289.929
290.124
290.381
290.697
291.074
291.527
292.049
292.647
293.318
294.037
294.826
295.543
296.131
296.633
297.043
297.366
297.609
297.783
297.902
297.975
298.008
298.008
298.055
298.078
298.078
298.067
298.027
298.065
298.079
298.083
298.07
298.043
297.98
298.001
297.943
297.958
298.005
298.006
297.959
297.96
298.02
298.035
298.024
297.968
298.018
298.022
297.98
298.024
298.037
298.038
298.039
298.014
298.035
298.039
298.026
297.973
298.006
298.015
298.002
297.959
298.018
298.041
298.05
298.039
298.016
297.946
297.974
297.973
297.932
297.887
297.937
297.918
297.983
298.005
297.993
297.986
297.981
297.963
297.919
297.975
297.974
297.927
297.984
297.982
297.94
297.987
298
297.994
297.98
297.927
297.981
297.984
297.963
297.973
297.969
297.971
297.958
297.923
297.976
298.006
298.017
298.005
297.964
297.891
297.932
297.966
297.948
297.994
297.996
297.978
297.993
297.988
297.965
297.994
298.006
298.004
297.985
297.977
297.917
297.956
297.964
297.96
297.946
297.978
297.992
297.992
297.988
297.97
297.932
297.879
297.917
297.875
297.928
297.887
297.949
297.957
297.915
297.864
297.901
297.968
297.984
297.974
297.915
297.956
297.968
297.978
297.943
298.004
298.026
298.038
298.033
298.011
297.971
297.948
297.957
297.981
297.984
297.967
297.922
297.966
297.99
297.987
297.976
297.915
297.976
298.007
298.009
298.007
297.978
297.914
297.956
297.946
297.894
297.94
297.976
297.991
297.988
297.987
297.976
297.954
297.922
297.908
297.954
297.987
298.002
298.008
298.011
298.001
298.002
297.981
297.96
297.97
297.964
297.918
297.86
297.913
297.911
297.953
297.965
297.983
297.993
297.981
297.93
297.96
297.927
297.978
297.996
297.991
298.002
297.999
297.979
297.92
297.981
297.985
297.964
297.888
297.922
297.943
297.914
297.937
297.911
297.96
297.964
297.966
297.927
297.921
297.977
297.986
297.976
297.962
297.915
297.892
297.954
297.984
298.014
298.016
297.996
297.966
297.994
298.009
298.003
298
298.002
297.984
297.94
297.979
297.986
297.977
297.957
297.911
297.915
297.933
297.91
297.855
297.899
297.879
297.936
297.945
297.912
297.967
297.994
297.994
297.961
297.966
297.994
297.988
297.955
297.988
297.993
297.99
297.948
297.98
297.975
297.941
297.922
297.901
297.957
297.964
297.943
297.899
297.943
297.966
297.965
297.946
297.937
297.944
297.888
297.884
297.95
297.96
297.931
297.967
297.989
297.989
297.963
297.977
297.966
297.915
297.96
297.979
297.973
297.976
297.965
297.957
297.953
297.935
297.925
297.895
297.918
297.881
297.944
297.946
297.913
297.97
297.988
297.979
297.929
297.976
297.977
297.972
297.969
297.957
297.957
297.912
297.974
297.982
297.969
297.924
297.947
297.921
297.969
297.967
297.914
297.967
297.972
297.976
297.976
297.965
297.934
297.954
297.964
297.945
297.95
297.98
297.98
297.958
297.896
297.944
297.967
297.97
297.952
297.899
297.941
297.932
297.957
297.963
297.968
297.954
297.975
297.987
297.987
297.978
297.952
297.898
297.888
297.941
297.951
297.945
297.919
297.869
297.921
297.923
297.902
297.817
293.908
293.909
293.915
293.922
293.927
293.935
293.946
293.961
293.98
293.994
294.016
294.039
294.061
294.09
294.12
294.152
294.185
294.219
294.251
294.281
294.314
294.349
294.383
294.414
294.437
294.456
294.478
294.501
294.526
294.551
294.572
294.589
294.601
294.609
294.619
294.628
294.633
294.632
294.629
294.622
294.615
294.607
294.599
294.587
294.571
294.552
294.531
294.509
294.487
294.463
294.437
294.412
294.386
294.356
294.319
294.282
294.244
294.204
294.166
294.129
294.089
294.047
293.999
293.939
293.876
293.831
293.789
293.732
293.664
293.605
293.564
293.519
293.458
293.388
293.333
293.271
293.195
293.13
293.055
292.968
292.912
292.876
292.829
292.74
292.644
292.569
292.529
292.48
292.396
292.315
292.237
292.162
292.064
292
291.955
291.89
291.813
291.719
291.629
291.583
291.544
291.467
291.35
291.29
291.257
291.202
291.124
291.01
290.99
290.926
290.838
290.73
290.637
290.577
290.468
290.336
290.247
290.145
290.072
289.939
289.845
289.807
289.785
289.752
289.7
289.607
289.462
289.344
289.282
289.228
289.206
289.184
289.155
289.143
289.174
289.224
289.311
289.449
289.635
289.878
290.181
290.534
290.945
291.429
291.969
292.602
293.268
294.035
294.785
295.41
295.971
296.412
296.788
297.064
297.274
297.42
297.506
297.54
297.537
297.508
297.58
297.604
297.609
297.589
297.537
297.574
297.59
297.591
297.586
297.562
297.493
297.54
297.55
297.5
297.549
297.558
297.545
297.495
297.533
297.559
297.551
297.512
297.53
297.523
297.464
297.509
297.53
297.544
297.526
297.482
297.537
297.552
297.532
297.497
297.52
297.507
297.513
297.468
297.526
297.551
297.545
297.534
297.518
297.45
297.475
297.484
297.436
297.492
297.458
297.505
297.494
297.475
297.496
297.461
297.446
297.442
297.426
297.474
297.511
297.529
297.526
297.525
297.521
297.528
297.521
297.484
297.526
297.545
297.532
297.507
297.496
297.478
297.475
297.492
297.491
297.444
297.507
297.53
297.523
297.51
297.459
297.512
297.461
297.501
297.455
297.477
297.503
297.47
297.484
297.486
297.446
297.492
297.509
297.518
297.485
297.511
297.503
297.441
297.445
297.417
297.413
297.474
297.482
297.494
297.479
297.48
297.418
297.417
297.477
297.499
297.488
297.511
297.49
297.454
297.422
297.453
297.42
297.462
297.486
297.459
297.416
297.448
297.48
297.492
297.524
297.542
297.555
297.556
297.543
297.521
297.435
297.405
297.404
297.461
297.484
297.48
297.438
297.485
297.469
297.492
297.49
297.457
297.485
297.492
297.526
297.521
297.493
297.51
297.486
297.48
297.486
297.449
297.48
297.467
297.482
297.454
297.44
297.455
297.395
297.377
297.421
297.491
297.511
297.521
297.512
297.484
297.477
297.497
297.473
297.496
297.468
297.405
297.439
297.418
297.369
297.43
297.439
297.469
297.482
297.469
297.412
297.48
297.508
297.52
297.512
297.482
297.513
297.479
297.5
297.514
297.489
297.504
297.483
297.416
297.449
297.442
297.397
297.454
297.478
297.475
297.44
297.468
297.407
297.397
297.449
297.487
297.496
297.468
297.409
297.452
297.457
297.511
297.527
297.528
297.507
297.45
297.49
297.485
297.503
297.492
297.457
297.471
297.411
297.45
297.467
297.457
297.451
297.376
297.38
297.431
297.43
297.491
297.49
297.492
297.484
297.449
297.426
297.489
297.513
297.503
297.435
297.438
297.494
297.502
297.466
297.504
297.5
297.447
297.397
297.443
297.459
297.423
297.415
297.4
297.476
297.481
297.445
297.459
297.47
297.44
297.462
297.416
297.419
297.457
297.423
297.474
297.463
297.476
297.449
297.484
297.484
297.466
297.441
297.498
297.499
297.5
297.487
297.458
297.431
297.47
297.463
297.426
297.442
297.417
297.441
297.407
297.426
297.389
297.438
297.42
297.401
297.474
297.508
297.523
297.522
297.509
297.493
297.445
297.471
297.446
297.468
297.431
297.478
297.478
297.434
297.41
297.458
297.431
297.482
297.486
297.508
297.495
297.489
297.475
297.468
297.471
297.466
297.487
297.478
297.425
297.425
297.479
297.499
297.487
297.485
297.441
297.455
297.484
297.495
297.492
297.467
297.424
297.467
297.472
297.436
297.411
297.459
297.454
297.468
297.475
297.457
297.391
297.404
297.452
297.452
297.467
297.425
297.47
297.457
297.408
297.425
297.368
294.032
294.034
294.038
294.043
294.049
294.057
294.068
294.082
294.097
294.115
294.134
294.156
294.18
294.207
294.236
294.266
294.297
294.328
294.359
294.389
294.419
294.449
294.477
294.503
294.525
294.546
294.565
294.585
294.603
294.62
294.634
294.647
294.656
294.663
294.669
294.674
294.675
294.67
294.662
294.651
294.64
294.628
294.615
294.6
294.581
294.559
294.535
294.51
294.484
294.456
294.427
294.399
294.372
294.34
294.298
294.254
294.217
294.178
294.133
294.09
294.048
294.002
293.952
293.897
293.836
293.777
293.724
293.669
293.608
293.549
293.498
293.448
293.388
293.314
293.24
293.174
293.105
293.042
292.968
292.897
292.817
292.75
292.694
292.626
292.554
292.454
292.364
292.319
292.232
292.143
292.087
292.004
291.896
291.817
291.761
291.716
291.64
291.516
291.419
291.363
291.315
291.201
291.109
291.03
290.981
290.919
290.827
290.74
290.697
290.644
290.557
290.424
290.351
290.245
290.097
289.984
289.892
289.846
289.71
289.567
289.469
289.412
289.358
289.318
289.228
289.115
289.01
288.963
288.837
288.754
288.706
288.689
288.699
288.727
288.772
288.859
288.991
289.168
289.399
289.684
290.024
290.406
290.861
291.359
291.949
292.579
293.294
294.041
294.693
295.284
295.767
296.175
296.496
296.733
296.9
297.005
297.065
297.083
297.035
297.057
297.077
297.093
297.065
297.058
297.066
297.046
297.054
297.066
297.055
297.055
297.011
297.069
297.099
297.094
297.049
297.045
297.064
297.063
297.037
297.064
297.072
297.065
297.037
297.033
296.996
296.975
296.964
296.981
296.999
296.975
296.986
297.028
297.034
297.006
297.016
297.003
297.009
296.962
297.008
297.01
297.018
296.986
297.026
297.051
297.011
297.02
296.977
297.036
296.987
297.035
296.971
296.923
296.963
296.955
296.939
296.982
297.006
296.968
296.994
297.049
297.04
297.015
297.033
297.006
296.996
296.965
297
297.055
297.036
296.979
296.987
296.967
296.974
296.995
296.974
296.95
296.99
297.025
297.031
296.996
296.959
297.016
297.032
297.011
297.025
296.974
297.016
296.986
296.964
296.98
296.947
296.988
296.975
297.018
297.028
297.025
297.011
296.917
296.897
296.889
296.958
296.969
296.936
296.968
296.974
296.973
296.945
296.998
296.986
297.024
296.997
297.035
297.006
296.946
296.977
297.025
297.012
296.957
296.994
296.965
297.003
296.963
296.959
296.968
297.028
297.032
297.008
297.025
297
297.005
296.963
296.965
296.909
296.919
296.965
296.953
296.984
296.957
296.926
296.94
296.994
296.984
296.94
296.936
296.996
297.018
296.99
297.019
296.966
296.954
296.985
296.98
296.979
296.929
296.94
296.887
296.901
296.955
296.92
296.981
296.94
296.984
296.973
296.984
296.996
296.977
296.941
296.96
296.977
296.981
296.964
296.898
296.928
296.888
296.868
296.921
296.931
296.933
296.973
296.97
296.919
296.994
297.032
297.019
296.994
297.017
297.009
296.955
296.962
296.996
296.948
296.972
296.965
297.01
296.978
296.94
296.93
296.938
296.99
296.979
296.931
296.988
297.005
296.994
296.927
296.967
296.953
296.961
296.93
296.964
296.95
296.969
297.015
297.013
296.962
296.934
296.958
296.922
296.952
296.921
296.9
296.952
296.926
296.916
296.954
296.946
296.939
296.963
296.914
296.95
296.934
296.956
296.979
297.025
297.006
296.945
296.955
297.003
297.025
297.02
297.001
296.969
296.998
296.985
297.015
296.99
296.974
296.905
296.949
296.913
296.96
296.957
296.953
297.003
296.988
296.979
296.942
296.967
296.931
296.895
296.954
296.937
296.964
297.005
297.027
297.008
296.958
296.988
296.986
296.95
296.975
296.936
296.985
296.988
296.968
296.992
296.948
296.912
296.899
296.939
296.905
296.891
296.928
296.934
296.927
296.943
296.919
296.972
296.966
296.931
296.972
296.953
296.986
297.01
297.024
296.97
296.956
296.917
296.96
296.963
296.971
296.988
296.964
296.94
296.909
296.955
296.947
296.987
296.991
296.951
296.997
296.981
296.928
296.911
296.925
296.961
296.973
296.962
296.971
296.959
296.939
296.979
296.982
296.944
296.986
296.921
296.908
296.967
296.973
297
296.985
296.946
296.962
296.951
296.894
296.898
296.942
296.913
296.929
296.964
296.935
296.941
296.974
296.976
296.955
296.968
296.942
296.982
296.955
296.895
296.952
296.988
294.07
294.071
294.075
294.081
294.086
294.094
294.105
294.118
294.134
294.15
294.17
294.192
294.216
294.243
294.273
294.303
294.333
294.364
294.394
294.421
294.449
294.477
294.503
294.526
294.545
294.563
294.581
294.596
294.61
294.622
294.632
294.639
294.644
294.647
294.648
294.647
294.643
294.632
294.619
294.604
294.586
294.57
294.552
294.532
294.51
294.484
294.457
294.428
294.4
294.371
294.337
294.308
294.276
294.241
294.199
294.153
294.109
294.067
294.026
293.977
293.93
293.884
293.837
293.782
293.72
293.659
293.599
293.541
293.486
293.432
293.38
293.317
293.253
293.188
293.114
293.031
292.967
292.918
292.843
292.767
292.695
292.628
292.531
292.457
292.413
292.325
292.206
292.132
292.064
291.983
291.918
291.834
291.745
291.653
291.573
291.518
291.442
291.314
291.229
291.161
291.068
290.958
290.895
290.819
290.718
290.632
290.564
290.511
290.407
290.343
290.233