/*--------------------------------*- C++ -*----------------------------------*\
| =========                 |                                                 |
| \\      /  F ield         | OpenFOAM: The Open Source CFD Toolbox           |
|  \\    /   O peration     | Version:  v2012                                 |
|   \\  /    A nd           | Website:  www.openfoam.com                      |
|    \\/     M anipulation  |                                                 |
\*---------------------------------------------------------------------------*/
FoamFile
{
    version     2.0;
    format      ascii;
    class       volScalarField;
    location    "450";
    object      theta;
}
// * * * * * * * * * * * * * * * * * * * * * * * * * * * * * * * * * * * * * //

dimensions      [0 0 0 1 0 0 0];


internalField   nonuniform List<scalar> 
65536
(
-5.73831
-5.73694
-5.73411
-5.72996
-5.72478
-5.71871
-5.71143
-5.70275
-5.69265
-5.68141
-5.66924
-5.65615
-5.64223
-5.62741
-5.61163
-5.59503
-5.57764
-5.55963
-5.54111
-5.52215
-5.50309
-5.48448
-5.46697
-5.45094
-5.43641
-5.42242
-5.40821
-5.39336
-5.37803
-5.3632
-5.34969
-5.33732
-5.32583
-5.31519
-5.30532
-5.29633
-5.2885
-5.28233
-5.27764
-5.27377
-5.27038
-5.26785
-5.26695
-5.26773
-5.26997
-5.27371
-5.27845
-5.28348
-5.28902
-5.29593
-5.30451
-5.3148
-5.32647
-5.33965
-5.35507
-5.37179
-5.38888
-5.40675
-5.4258
-5.44635
-5.46835
-5.49108
-5.5144
-5.53965
-5.5666
-5.59276
-5.61841
-5.64722
-5.67691
-5.70363
-5.72976
-5.76234
-5.79422
-5.82343
-5.85498
-5.89395
-5.93015
-5.96181
-5.99418
-6.03036
-6.06858
-6.10708
-6.14412
-6.18548
-6.22905
-6.27068
-6.30436
-6.34765
-6.40052
-6.44405
-6.48008
-6.52079
-6.57073
-6.62108
-6.66904
-6.71947
-6.76934
-6.82024
-6.88132
-6.9456
-7.00139
-7.05198
-7.10998
-7.17679
-7.23907
-7.29129
-7.34464
-7.40534
-7.46613
-7.52215
-7.57386
-7.63307
-7.69772
-7.75775
-7.81634
-7.88278
-7.95597
-8.02671
-8.08979
-8.14991
-8.21457
-8.28351
-8.34963
-8.40671
-8.45736
-8.5046
-8.55117
-8.59946
-8.64735
-8.69283
-8.7341
-8.76943
-8.79871
-8.81659
-8.81892
-8.80605
-8.77433
-8.71987
-8.64093
-8.52156
-8.3467
-8.10591
-7.80309
-7.40961
-6.95068
-6.40287
-5.79232
-5.14511
-4.47739
-3.80968
-3.17218
-2.59194
-2.08162
-1.64748
-1.29306
-1.01772
-0.818617
-0.685118
-0.59785
-0.541309
-0.503029
-0.47842
-0.463559
-0.454635
-0.450987
-0.448718
-0.449047
-0.452113
-0.456071
-0.46158
-0.46818
-0.474659
-0.478936
-0.4843
-0.485429
-0.486158
-0.485255
-0.485786
-0.483673
-0.481655
-0.479156
-0.476813
-0.473739
-0.470613
-0.467823
-0.464945
-0.464167
-0.462813
-0.462526
-0.463136
-0.463129
-0.464246
-0.465313
-0.466353
-0.467154
-0.466542
-0.466157
-0.465326
-0.46547
-0.466228
-0.4698
-0.475419
-0.482238
-0.490765
-0.496892
-0.503258
-0.509232
-0.509842
-0.511941
-0.510342
-0.508046
-0.505558
-0.503197
-0.501388
-0.500522
-0.502328
-0.50379
-0.504061
-0.506106
-0.506417
-0.510464
-0.513062
-0.512925
-0.514213
-0.515326
-0.516578
-0.519482
-0.520097
-0.523936
-0.527013
-0.528409
-0.529998
-0.530062
-0.529378
-0.527414
-0.523873
-0.522507
-0.519701
-0.517604
-0.516709
-0.515511
-0.513523
-0.514684
-0.511528
-0.509508
-0.506457
-0.505507
-0.505911
-0.504975
-0.50636
-0.507912
-0.508113
-0.509472
-0.510869
-0.513846
-0.516344
-0.518195
-0.519916
-0.520363
-0.520078
-0.520388
-0.518169
-0.516538
-0.51677
-0.51869
-0.521649
-0.525469
-0.530326
-0.536307
-0.538029
-0.542269
-0.542118
-0.542514
-0.541321
-0.539941
-0.534206
-0.532649
-0.527426
-0.522443
-0.519029
-0.51789
-0.514527
-0.512039
-0.508041
-0.503018
-0.499881
-0.496277
-0.494365
-0.494731
-0.496312
-0.499479
-0.504618
-0.506865
-0.510338
-0.513127
-0.515512
-0.516794
-0.51604
-0.514434
-0.513676
-0.512311
-0.511622
-0.511622
-0.512038
-0.514873
-0.519077
-0.52428
-0.528587
-0.53249
-0.533761
-0.531663
-0.530403
-0.527907
-0.525812
-0.524198
-0.523834
-0.523283
-0.523874
-0.523873
-0.523001
-0.519174
-0.51602
-0.512524
-0.51013
-0.509008
-0.509029
-0.509627
-0.511614
-0.513701
-0.516637
-0.520904
-0.524328
-0.524777
-0.526133
-0.524573
-0.519657
-0.516679
-0.514343
-0.513362
-0.513744
-0.516449
-0.517162
-0.516915
-0.516463
-0.513751
-0.51068
-0.507777
-0.50638
-0.50769
-0.507247
-0.509287
-0.511881
-0.514669
-0.517924
-0.519286
-0.521783
-0.525369
-0.527728
-0.52861
-0.528469
-0.527437
-0.526041
-0.52645
-0.526386
-0.525834
-0.526995
-0.529268
-0.530865
-0.532094
-0.529231
-0.525582
-0.520622
-0.515006
-0.510669
-0.507137
-0.505648
-0.503097
-0.501908
-0.500542
-0.500839
-0.500653
-0.501287
-0.502838
-0.504208
-0.50716
-0.512083
-0.518727
-0.526947
-0.535411
-0.543465
-0.553512
-0.560943
-0.563493
-0.561053
-0.559773
-0.555719
-0.550523
-0.540807
-0.530217
-0.520649
-0.514366
-0.508062
-0.504854
-0.503314
-0.502455
-0.502877
-0.503094
-0.503765
-0.505597
-0.506397
-0.509675
-0.513807
-0.517856
-0.52213
-0.524315
-0.527067
-0.528878
-0.529353
-0.530601
-0.528373
-0.528879
-0.529931
-0.532612
-0.535846
-0.538773
-0.538433
-0.538049
-0.534998
-0.530757
-0.526495
-0.523275
-0.520645
-0.521129
-0.521282
-0.522434
-0.521939
-0.522384
-0.521024
-0.521262
-0.521571
-0.523099
-0.525878
-0.527898
-0.531947
-0.534895
-0.537031
-0.538003
-0.539372
-0.537833
-0.535705
-0.535144
-0.531759
-0.529752
-0.52796
-0.525253
-0.523019
-0.520414
-0.516951
-0.514679
-0.513022
-0.511353
-0.510959
-0.509531
-0.509213
-0.509756
-0.512918
-0.514347
-0.517721
-0.519996
-0.523513
-0.525766
-0.528256
-0.529713
-0.531134
-0.53276
-0.53375
-0.532827
-0.533793
-0.53216
-0.531279
-0.531197
-0.531159
-0.533426
-0.536731
-0.53842
-0.541636
-0.544446
-0.546811
-0.54912
-0.550241
-0.551784
-0.550845
-0.548358
-0.5461
-0.54344
-0.539572
-0.537429
-0.536292
-0.535524
-0.536289
-0.538995
-0.542899
-0.545555
-0.548036
-0.551074
-0.554422
-0.557532
-0.557801
-0.560065
-0.560567
-0.561752
-0.561922
-5.35756
-5.35713
-5.35493
-5.34954
-5.34347
-5.33834
-5.33263
-5.32261
-5.31095
-5.29979
-5.28711
-5.274
-5.25997
-5.24563
-5.23013
-5.21229
-5.1945
-5.17662
-5.15741
-5.13685
-5.11509
-5.09421
-5.07576
-5.05956
-5.04468
-5.03015
-5.01507
-4.99878
-4.98141
-4.96466
-4.95009
-4.93703
-4.92501
-4.91411
-4.90382
-4.89414
-4.88571
-4.87987
-4.87613
-4.87272
-4.86891
-4.86575
-4.86531
-4.867
-4.87024
-4.87609
-4.8829
-4.88862
-4.89439
-4.90226
-4.91108
-4.921
-4.93531
-4.95383
-4.96861
-4.98142
-4.99871
-5.01896
-5.03994
-5.06117
-5.08198
-5.10502
-5.1328
-5.15946
-5.18075
-5.20633
-5.24312
-5.27202
-5.28835
-5.31599
-5.36275
-5.38592
-5.39526
-5.43366
-5.49008
-5.51413
-5.53527
-5.5814
-5.62861
-5.64795
-5.67715
-5.72331
-5.77881
-5.80678
-5.84418
-5.88379
-5.94605
-6.00189
-6.02276
-6.0599
-6.09317
-6.14324
-6.20064
-6.24456
-6.28929
-6.33508
-6.39356
-6.45682
-6.5204
-6.57395
-6.62797
-6.68459
-6.75221
-6.82249
-6.87644
-6.92733
-6.98715
-7.05058
-7.11187
-7.15547
-7.212
-7.27912
-7.34067
-7.39564
-7.45587
-7.52148
-7.59189
-7.65862
-7.72576
-7.79635
-7.87043
-7.93826
-7.99217
-8.04534
-8.09433
-8.14788
-8.20445
-8.25265
-8.29672
-8.34168
-8.38736
-8.42672
-8.44999
-8.46688
-8.48184
-8.46941
-8.43327
-8.37766
-8.29858
-8.2078
-8.06284
-7.83199
-7.53739
-7.13636
-6.67316
-6.10325
-5.45071
-4.77511
-4.08278
-3.38454
-2.72988
-2.1513
-1.65983
-1.24436
-0.912987
-0.656268
-0.468013
-0.337384
-0.249352
-0.18731
-0.152115
-0.125876
-0.108286
-0.102097
-0.0961019
-0.0969589
-0.100726
-0.101475
-0.107206
-0.113518
-0.122755
-0.131134
-0.141864
-0.137895
-0.140635
-0.14141
-0.143989
-0.13707
-0.135322
-0.130127
-0.12882
-0.128214
-0.124619
-0.121294
-0.116718
-0.118097
-0.112916
-0.111418
-0.11129
-0.108416
-0.113545
-0.114085
-0.118475
-0.121333
-0.119314
-0.120203
-0.119373
-0.121307
-0.118463
-0.118747
-0.119766
-0.123556
-0.132707
-0.138604
-0.149696
-0.158229
-0.160739
-0.176305
-0.174223
-0.173925
-0.164967
-0.156208
-0.149642
-0.149151
-0.15434
-0.152164
-0.154305
-0.160218
-0.160936
-0.17115
-0.166418
-0.165346
-0.172258
-0.167762
-0.166113
-0.167594
-0.167779
-0.180046
-0.177761
-0.176122
-0.179694
-0.180552
-0.179544
-0.179422
-0.179516
-0.180534
-0.170677
-0.167979
-0.16643
-0.165155
-0.169754
-0.176406
-0.163382
-0.16351
-0.158269
-0.159845
-0.157024
-0.153414
-0.158686
-0.155977
-0.15387
-0.156929
-0.156333
-0.159154
-0.161688
-0.17034
-0.179619
-0.179827
-0.178165
-0.176325
-0.168479
-0.170538
-0.170657
-0.167788
-0.166863
-0.170447
-0.178714
-0.18909
-0.190742
-0.204439
-0.201328
-0.206894
-0.200831
-0.197714
-0.191652
-0.198752
-0.183103
-0.178535
-0.174996
-0.17281
-0.166155
-0.167422
-0.163497
-0.161913
-0.160587
-0.148098
-0.14281
-0.141012
-0.141815
-0.145599
-0.149907
-0.149607
-0.159836
-0.16181
-0.16393
-0.164395
-0.165224
-0.166072
-0.166227
-0.161141
-0.162349
-0.164553
-0.159618
-0.161725
-0.162262
-0.168946
-0.178628
-0.188726
-0.189382
-0.188516
-0.192624
-0.183212
-0.178758
-0.174133
-0.170025
-0.169256
-0.174652
-0.173893
-0.175235
-0.170374
-0.17083
-0.165438
-0.161661
-0.158949
-0.156735
-0.155055
-0.158232
-0.158234
-0.164015
-0.168594
-0.172289
-0.178015
-0.188814
-0.181814
-0.174491
-0.174366
-0.166888
-0.164441
-0.162605
-0.16572
-0.164031
-0.171112
-0.175054
-0.167956
-0.161721
-0.157762
-0.15948
-0.162307
-0.160265
-0.169075
-0.165557
-0.162633
-0.163879
-0.168583
-0.175067
-0.179617
-0.177521
-0.182096
-0.186277
-0.182341
-0.177628
-0.175983
-0.170345
-0.170066
-0.174001
-0.175071
-0.176135
-0.181135
-0.181145
-0.18816
-0.179661
-0.169524
-0.16363
-0.158556
-0.156076
-0.151908
-0.152404
-0.148859
-0.148621
-0.145718
-0.150471
-0.151223
-0.150265
-0.15577
-0.158348
-0.161542
-0.167273
-0.173262
-0.183095
-0.199082
-0.208787
-0.217741
-0.219789
-0.225311
-0.216729
-0.21255
-0.202999
-0.192489
-0.18146
-0.171371
-0.159239
-0.156823
-0.154683
-0.153268
-0.154213
-0.152406
-0.153588
-0.155158
-0.151037
-0.159159
-0.162908
-0.165705
-0.171869
-0.170809
-0.176803
-0.179256
-0.183635
-0.188775
-0.180755
-0.184121
-0.179819
-0.180293
-0.182004
-0.18813
-0.19144
-0.198387
-0.1908
-0.18487
-0.180988
-0.174848
-0.172402
-0.172755
-0.167705
-0.170565
-0.173284
-0.179991
-0.17355
-0.174237
-0.170765
-0.170523
-0.171054
-0.174511
-0.181545
-0.181285
-0.184773
-0.189603
-0.190986
-0.186873
-0.18832
-0.188414
-0.18058
-0.181601
-0.17922
-0.180659
-0.183694
-0.178295
-0.171006
-0.169935
-0.166264
-0.163035
-0.163081
-0.159965
-0.160615
-0.160868
-0.164702
-0.161019
-0.163955
-0.165118
-0.171786
-0.175042
-0.183625
-0.180862
-0.178571
-0.180699
-0.183194
-0.185406
-0.189383
-0.181484
-0.181438
-0.177687
-0.176614
-0.18077
-0.181978
-0.185924
-0.197704
-0.196294
-0.195903
-0.197866
-0.203208
-0.209932
-0.204056
-0.199622
-0.199199
-0.193717
-0.190134
-0.190805
-0.186494
-0.183091
-0.183799
-0.186056
-0.188084
-0.187799
-0.196059
-0.198769
-0.200052
-0.203703
-0.207744
-0.218002
-0.213145
-0.214891
-0.215511
-0.221461
-5.01682
-5.01606
-5.01354
-5.00809
-5.00163
-4.99576
-4.98906
-4.97827
-4.96547
-4.95279
-4.93849
-4.92349
-4.90757
-4.89085
-4.87264
-4.85207
-4.83116
-4.81027
-4.78836
-4.76502
-4.74033
-4.71615
-4.69421
-4.67469
-4.65636
-4.63846
-4.62022
-4.60113
-4.58143
-4.56237
-4.54511
-4.52988
-4.51664
-4.50487
-4.49365
-4.4827
-4.47373
-4.46831
-4.46548
-4.46256
-4.45896
-4.45637
-4.45652
-4.45995
-4.46694
-4.47666
-4.48664
-4.49595
-4.50556
-4.51608
-4.52811
-4.5431
-4.56211
-4.58178
-4.59786
-4.61546
-4.63918
-4.66458
-4.68869
-4.71125
-4.7341
-4.76144
-4.79313
-4.82317
-4.85124
-4.8842
-4.9221
-4.95207
-4.97615
-5.01442
-5.0601
-5.07997
-5.09121
-5.14205
-5.19962
-5.2243
-5.25572
-5.3198
-5.36971
-5.37536
-5.39929
-5.46455
-5.53044
-5.55589
-5.56134
-5.61651
-5.72077
-5.77796
-5.76882
-5.77729
-5.85326
-5.92577
-5.96818
-6.02768
-6.05347
-6.07983
-6.13725
-6.23861
-6.31273
-6.32982
-6.37218
-6.47236
-6.55517
-6.58681
-6.62432
-6.70028
-6.79725
-6.82613
-6.86839
-6.93363
-6.98529
-7.04817
-7.10936
-7.15799
-7.21749
-7.29907
-7.37426
-7.44493
-7.51134
-7.59416
-7.67741
-7.73465
-7.78499
-7.82538
-7.87609
-7.92351
-7.98293
-8.05232
-8.11289
-8.15823
-8.18739
-8.2164
-8.25026
-8.27747
-8.28362
-8.29423
-8.28489
-8.23471
-8.15467
-8.05563
-7.89513
-7.64999
-7.32707
-6.92144
-6.43725
-5.86384
-5.2293
-4.52179
-3.81384
-3.0552
-2.34348
-1.79888
-1.31036
-0.926413
-0.617562
-0.384572
-0.214693
-0.0951296
-0.0173722
0.0259171
0.069038
0.0902414
0.0987909
0.108194
0.105024
0.106865
0.115009
0.11189
0.106207
0.0916159
0.0790279
0.0682691
0.0581288
0.0520242
0.0597395
0.0618756
0.0618678
0.0580323
0.067569
0.068983
0.0728073
0.0790601
0.0816759
0.0819848
0.0772196
0.0911723
0.0941116
0.0919687
0.0941351
0.0867486
0.0949714
0.0899131
0.0888988
0.0852919
0.0820599
0.0841547
0.0814214
0.0846041
0.0870682
0.0908209
0.0890654
0.0797881
0.0706357
0.0542342
0.0461042
0.0428286
0.0280269
0.0349848
0.028106
0.0324086
0.0412277
0.0500909
0.0467169
0.0469517
0.0514506
0.0422967
0.0398013
0.044701
0.0377989
0.0393856
0.0349138
0.0322075
0.0368122
0.0376015
0.0442477
0.0432606
0.0328199
0.0303932
0.0293817
0.0249285
0.022042
0.0237304
0.019694
0.0239252
0.0240161
0.0276813
0.0286886
0.0391908
0.0441325
0.0401217
0.0364111
0.0349866
0.0278829
0.0398457
0.0407542
0.0523841
0.0507934
0.045839
0.0533387
0.0485761
0.0435115
0.0480116
0.0480568
0.045433
0.0383116
0.0334267
0.0274602
0.0303612
0.032224
0.0338537
0.0274058
0.0383209
0.0436967
0.0407976
0.0367348
0.0290175
0.0210264
0.016319
0.00317156
0.00346946
-0.00283921
0.00036613
0.00595088
0.0088536
-0.00349202
0.0035472
0.00430626
0.0241382
0.0331838
0.0360245
0.0269701
0.0289064
0.033483
0.0433049
0.0550926
0.0552766
0.0636773
0.06978
0.071313
0.0646958
0.0536455
0.0423805
0.0480375
0.0466612
0.0407896
0.0352955
0.0336809
0.037662
0.0439218
0.0393682
0.0418391
0.0479433
0.043651
0.0515762
0.0452362
0.0402711
0.0273003
0.0102418
0.0161455
0.0162535
0.0235837
0.01915
0.0292046
0.035027
0.0312151
0.0330394
0.037458
0.0284673
0.026076
0.0233048
0.0367443
0.0444222
0.0480987
0.0505885
0.0513544
0.0470116
0.0496592
0.0400431
0.0384414
0.0352592
0.0289153
0.0170212
0.0208615
0.0145326
0.01338
0.0266467
0.0300004
0.039061
0.0402121
0.0400246
0.0272213
0.0267923
0.0234468
0.0310237
0.0369742
0.0415719
0.0497172
0.0528449
0.042182
0.04424
0.0431252
0.0389865
0.031899
0.0268265
0.0215342
0.0235732
0.0117455
0.0170773
0.0243072
0.0244432
0.0243005
0.0254069
0.0177457
0.0190398
0.0290603
0.0278467
0.0233723
0.0196042
0.00681048
0.0186475
0.0230463
0.0336055
0.0471305
0.0532065
0.0503051
0.0485556
0.0546851
0.0574511
0.0570849
0.0540076
0.0604794
0.0522395
0.0404639
0.0476963
0.0440472
0.0371554
0.0281719
0.013046
0.00363814
-0.00198165
-0.0232506
-0.0490569
-0.0386815
-0.0229928
-0.0175152
-0.00761072
-0.0014094
0.00902941
0.0270123
0.036944
0.036235
0.0420037
0.0512768
0.0506495
0.0485871
0.0481275
0.0510121
0.0523738
0.0365862
0.0449265
0.0412725
0.0295533
0.0253634
0.0165818
0.0231089
0.0203777
0.0156552
0.0166815
0.0143442
0.0281122
0.0246403
0.0188902
0.0111706
0.0109266
0.00237914
0.00923972
0.0104668
0.0137943
0.0202363
0.0248111
0.0354815
0.0395891
0.0308714
0.0289343
0.0222299
0.0210017
0.0209751
0.0343528
0.0368456
0.0348265
0.0274529
0.0263926
0.0237939
0.0117491
0.00777729
0.00919473
0.00842694
0.00550948
0.0124199
0.0170343
0.0146938
0.0246353
0.0261982
0.0255158
0.0234036
0.0311328
0.0307615
0.0382429
0.03623
0.0329924
0.0376489
0.0388727
0.0448858
0.0459818
0.0472348
0.0353856
0.0315947
0.0293201
0.0306724
0.0220026
0.0179057
0.0192045
0.0188242
0.022906
0.0242299
0.0208035
0.0187625
0.0145833
0.021242
0.0177194
0.0199836
0.027715
0.021784
0.0112877
0.00993958
0.0100934
0.013328
0.00905629
0.00249961
-0.00273169
-0.00231793
-0.000654675
0.00989363
0.0104866
0.0158695
0.0202094
0.0240407
0.0263426
0.0263167
0.0229419
0.0157945
0.00098941
0.00438892
0.00290283
0.000258055
-0.00216345
-0.00981088
-0.00959737
-0.0148225
-0.0116056
-0.017043
-0.0175035
-4.55205
-4.55065
-4.54739
-4.54194
-4.53541
-4.52847
-4.52002
-4.5081
-4.49408
-4.47975
-4.46323
-4.44563
-4.42712
-4.40703
-4.38502
-4.36086
-4.33608
-4.31161
-4.28687
-4.26082
-4.23345
-4.20624
-4.18096
-4.15873
-4.13828
-4.11859
-4.09898
-4.07845
-4.05728
-4.03722
-4.0189
-4.00268
-3.98896
-3.97671
-3.96532
-3.95171
-3.94026
-3.9363
-3.9375
-3.93577
-3.93074
-3.92663
-3.92646
-3.93128
-3.94178
-3.95579
-3.96886
-3.98043
-3.99159
-4.00244
-4.01682
-4.03834
-4.06217
-4.08172
-4.10016
-4.1267
-4.15829
-4.18816
-4.21679
-4.24149
-4.26472
-4.29646
-4.33594
-4.37506
-4.4169
-4.45492
-4.48581
-4.52782
-4.58179
-4.62346
-4.64889
-4.68598
-4.73662
-4.77115
-4.81595
-4.87473
-4.93523
-4.98931
-5.04265
-5.08711
-5.11779
-5.16863
-5.2303
-5.28187
-5.30032
-5.3779
-5.45932
-5.49474
-5.49769
-5.54298
-5.64717
-5.71543
-5.76835
-5.83285
-5.8639
-5.87743
-5.92787
-6.05069
-6.12664
-6.14686
-6.19381
-6.31246
-6.39019
-6.43641
-6.48431
-6.55652
-6.63853
-6.67732
-6.74298
-6.79958
-6.83491
-6.90545
-6.97818
-7.0242
-7.07283
-7.13606
-7.21347
-7.28975
-7.36608
-7.45922
-7.59489
-7.64904
-7.66397
-7.69102
-7.7282
-7.80018
-7.87424
-7.95382
-8.00712
-8.05254
-8.09115
-8.12084
-8.14604
-8.17919
-8.22512
-8.24768
-8.22793
-8.15958
-8.05183
-7.89355
-7.67628
-7.38554
-7.03874
-6.60837
-6.10573
-5.52893
-4.8698
-4.16707
-3.38356
-2.63665
-1.99457
-1.46658
-1.01174
-0.658056
-0.378849
-0.17102
-0.0229448
0.0729666
0.134085
0.181762
0.203038
0.223419
0.23567
0.228444
0.222036
0.229593
0.226749
0.223397
0.215917
0.203055
0.178986
0.162588
0.121157
0.154445
0.171792
0.17268
0.153023
0.15917
0.173508
0.18832
0.185193
0.163218
0.179932
0.191174
0.194533
0.196823
0.20339
0.211674
0.205856
0.211303
0.20462
0.20576
0.191169
0.172471
0.184078
0.18548
0.18495
0.170523
0.190518
0.202268
0.203529
0.198157
0.181192
0.16105
0.159195
0.144947
0.135245
0.092811
0.10988
0.0943083
0.134619
0.151419
0.168551
0.16311
0.150075
0.144924
0.132014
0.13792
0.140639
0.105447
0.139448
0.140206
0.111992
0.142278
0.15065
0.150858
0.144291
0.0972503
0.137551
0.14467
0.140353
0.133417
0.138743
0.136074
0.136559
0.125685
0.151013
0.159874
0.159599
0.152147
0.134275
0.0897734
0.134065
0.142067
0.146222
0.146777
0.15962
0.164391
0.154138
0.157733
0.163272
0.165333
0.167544
0.166887
0.158948
0.13552
0.0911484
0.116693
0.129816
0.133177
0.147948
0.148825
0.1516
0.156604
0.151196
0.144146
0.124048
0.0922966
0.0982848
0.0591066
0.083876
0.0574632
0.099337
0.104325
0.103162
0.0632437
0.106749
0.123601
0.136624
0.131975
0.128958
0.143412
0.151483
0.146276
0.135614
0.175471
0.191349
0.194234
0.188985
0.180548
0.169608
0.162088
0.149761
0.146546
0.152151
0.145395
0.12974
0.143407
0.145171
0.154407
0.144098
0.119041
0.149877
0.156727
0.167927
0.154963
0.127769
0.0715876
0.107366
0.116993
0.0945794
0.128372
0.136697
0.140105
0.150993
0.145693
0.136492
0.134945
0.13325
0.134164
0.137812
0.152486
0.165734
0.173096
0.169271
0.167987
0.158421
0.161305
0.151903
0.14725
0.131839
0.115968
0.0759328
0.10376
0.122215
0.127433
0.142934
0.150847
0.154206
0.148535
0.138668
0.123217
0.091607
0.134384
0.156322
0.167233
0.16689
0.15537
0.146238
0.106742
0.137371
0.150643
0.140174
0.111457
0.125385
0.123271
0.127824
0.117861
0.0995648
0.117871
0.133444
0.140383
0.144982
0.142459
0.139159
0.147409
0.145055
0.129497
0.118262
0.0893494
0.125765
0.156086
0.164535
0.166476
0.170444
0.16675
0.166598
0.167524
0.177828
0.176562
0.160441
0.160299
0.155696
0.148847
0.150989
0.148326
0.142209
0.135531
0.121441
0.0999476
0.0731934
0.00381901
0.0597928
0.045855
0.0842162
0.0835479
0.0841746
0.115475
0.137117
0.151602
0.162945
0.165105
0.161969
0.162865
0.155626
0.161918
0.161907
0.151308
0.159765
0.146039
0.142545
0.13887
0.130474
0.122752
0.128355
0.128344
0.113953
0.0854603
0.120609
0.125714
0.137371
0.136787
0.132589
0.114182
0.0966314
0.0824464
0.106317
0.122016
0.128037
0.145605
0.146902
0.14479
0.15295
0.147243
0.132568
0.0912402
0.129805
0.135419
0.140507
0.144553
0.146778
0.136055
0.1291
0.127672
0.120065
0.104651
0.105146
0.0993972
0.113566
0.12041
0.125749
0.136391
0.143303
0.133453
0.0925319
0.128909
0.150904
0.146448
0.150698
0.152005
0.139605
0.124425
0.139748
0.147334
0.1384
0.138041
0.138556
0.131188
0.135029
0.123641
0.084719
0.124419
0.142433
0.139472
0.128449
0.121344
0.117947
0.13419
0.135469
0.142282
0.143942
0.138892
0.140551
0.125165
0.076189
0.107635
0.118208
0.121089
0.10846
0.0682123
0.0999948
0.119832
0.121856
0.12663
0.121326
0.129523
0.132219
0.13237
0.135836
0.136662
0.129133
0.115929
0.102704
0.112786
0.116512
0.110446
0.0947549
0.0563458
0.0903929
0.0910899
0.0805782
0.043809
-4.01696
-4.01569
-4.01117
-4.00433
-3.9985
-3.99095
-3.98123
-3.96733
-3.94949
-3.93554
-3.91507
-3.8938
-3.87425
-3.8489
-3.82173
-3.79173
-3.76091
-3.73002
-3.70061
-3.67219
-3.6399
-3.60614
-3.57299
-3.54237
-3.51992
-3.50159
-3.48132
-3.45789
-3.43104
-3.4031
-3.37977
-3.35934
-3.34547
-3.339
-3.32609
-3.30828
-3.29641
-3.29497
-3.30054
-3.30243
-3.30038
-3.29907
-3.30122
-3.30871
-3.32263
-3.34083
-3.35849
-3.37473
-3.3906
-3.40577
-3.42412
-3.44944
-3.47725
-3.50082
-3.52576
-3.56073
-3.60113
-3.63598
-3.67051
-3.704
-3.72919
-3.75937
-3.81521
-3.87853
-3.92308
-3.96224
-3.9972
-4.05117
-4.1241
-4.17858
-4.19633
-4.23692
-4.30837
-4.35619
-4.38939
-4.45862
-4.53535
-4.59914
-4.66573
-4.73221
-4.75333
-4.7973
-4.87566
-4.94039
-5.01082
-5.07455
-5.13964
-5.1588
-5.2015
-5.29007
-5.35273
-5.42126
-5.51115
-5.55515
-5.61243
-5.67071
-5.73247
-5.82289
-5.90178
-5.96382
-6.01004
-6.05967
-6.17573
-6.26245
-6.31544
-6.342
-6.39343
-6.51386
-6.58387
-6.59738
-6.65696
-6.76139
-6.84506
-6.91212
-6.95268
-7.04658
-7.12232
-7.23309
-7.29512
-7.41455
-7.54252
-7.59651
-7.58229
-7.59911
-7.65181
-7.72662
-7.84673
-7.96271
-8.00722
-8.04235
-8.05636
-8.07964
-8.12255
-8.17611
-8.20957
-8.18724
-8.12016
-8.01624
-7.86405
-7.66915
-7.41183
-7.09609
-6.71911
-6.26539
-5.74365
-5.14569
-4.47458
-3.75532
-2.96639
-2.24957
-1.66195
-1.15937
-0.749375
-0.426279
-0.183562
-0.00995922
0.10899
0.182258
0.215155
0.215651
0.262535
0.285713
0.284847
0.274659
0.23455
0.272148
0.285802
0.289893
0.277199
0.250635
0.187405
0.207859
0.150067
0.165011
0.211873
0.213193
0.166683
0.167258
0.227479
0.24176
0.2311
0.175008
0.224959
0.229381
0.187662
0.231163
0.244149
0.244796
0.24667
0.22122
0.24258
0.24579
0.23301
0.179927
0.213662
0.221796
0.209725
0.166672
0.225353
0.247767
0.257452
0.246675
0.223704
0.153418
0.181498
0.179818
0.139353
0.0942252
0.144187
0.124798
0.189966
0.212357
0.20071
0.193166
0.18791
0.169911
0.125982
0.182507
0.181564
0.134023
0.191284
0.188847
0.147653
0.194029
0.207124
0.201679
0.187403
0.133897
0.188378
0.190799
0.170596
0.180043
0.176438
0.178349
0.165289
0.129952
0.183096
0.213551
0.224738
0.212625
0.171021
0.0980728
0.139024
0.173055
0.155073
0.201341
0.203616
0.185511
0.200586
0.195687
0.172187
0.201233
0.212758
0.211515
0.192118
0.184315
0.124102
0.163699
0.171085
0.167268
0.153398
0.185083
0.198961
0.199286
0.194899
0.177036
0.139619
0.0857976
0.12418
0.0820747
0.135651
0.0942927
0.155995
0.163947
0.121849
0.0714383
0.107856
0.174794
0.190795
0.181443
0.122492
0.163472
0.175131
0.18572
0.150686
0.210842
0.232871
0.244798
0.240102
0.21858
0.178217
0.155184
0.164295
0.187845
0.190862
0.17378
0.129156
0.172804
0.197713
0.194522
0.182767
0.121812
0.182936
0.21462
0.216084
0.213783
0.185699
0.120829
0.163305
0.153599
0.101365
0.147376
0.183337
0.1981
0.195493
0.194374
0.183257
0.161182
0.129744
0.114797
0.16162
0.194656
0.20927
0.214828
0.218741
0.208601
0.209154
0.188636
0.167097
0.177128
0.170842
0.125125
0.0669884
0.119922
0.117945
0.159847
0.172421
0.190196
0.200506
0.187868
0.137093
0.16761
0.1339
0.185241
0.203007
0.198089
0.208805
0.205882
0.186144
0.127254
0.188171
0.192299
0.171398
0.095353
0.129221
0.1504
0.120835
0.14398
0.118112
0.167671
0.171185
0.173415
0.134169
0.12839
0.184395
0.193704
0.183644
0.169206
0.122593
0.0989888
0.161077
0.190859
0.221073
0.223169
0.202888
0.173142
0.201431
0.21634
0.210314
0.207074
0.208911
0.191442
0.147111
0.186369
0.192955
0.183813
0.163791
0.118163
0.121801
0.140469
0.116988
0.0617805
0.106042
0.0862218
0.142852
0.151857
0.118807
0.174237
0.201394
0.201061
0.167822
0.173433
0.201288
0.195591
0.162022
0.195055
0.199894
0.197042
0.155587
0.187724
0.182364
0.147968
0.129221
0.108603
0.164431
0.17135
0.150667
0.106165
0.150413
0.173561
0.172149
0.153014
0.144641
0.151468
0.0949819
0.0907687
0.157019
0.166915
0.138302
0.174335
0.196179
0.196417
0.170749
0.184149
0.173237
0.121976
0.16682
0.186337
0.180406
0.183549
0.172256
0.164222
0.160565
0.141762
0.132373
0.102178
0.125213
0.0877773
0.151568
0.153381
0.120107
0.176982
0.194771
0.185866
0.136445
0.182752
0.184191
0.179459
0.176688
0.16388
0.163915
0.119559
0.180862
0.189589
0.176108
0.131315
0.154689
0.128071
0.17667
0.174575
0.121118
0.174718
0.179742
0.183215
0.182908
0.172386
0.141616
0.160773
0.171291
0.15273
0.157153
0.187617
0.1869
0.165549
0.103344
0.151715
0.174147
0.177538
0.158786
0.106304
0.148259
0.139075
0.163982
0.17012
0.175505
0.161502
0.182318
0.194586
0.1939
0.18565
0.159663
0.104971
0.0952608
0.147886
0.15824
0.152715
0.125789
0.0765777
0.12789
0.129817
0.108815
0.0244431
-3.39396
-3.39281
-3.3876
-3.38027
-3.37511
-3.36736
-3.35674
-3.34161
-3.32247
-3.30845
-3.28578
-3.26281
-3.24162
-3.21274
-3.18259
-3.15018
-3.11717
-3.08336
-3.0514
-3.0214
-2.98782
-2.95298
-2.91897
-2.88822
-2.86525
-2.84582
-2.82464
-2.80133
-2.77593
-2.75078
-2.72998
-2.71283
-2.70083
-2.69365
-2.68319
-2.67378
-2.66927
-2.66979
-2.67363
-2.68009
-2.68767
-2.6952
-2.70365
-2.71538
-2.73132
-2.75059
-2.77168
-2.79311
-2.8153
-2.83957
-2.86528
-2.89042
-2.91595
-2.94647
-2.98277
-3.02053
-3.05851
-3.09849
-3.13634
-3.17281
-3.2131
-3.2555
-3.30292
-3.36355
-3.42668
-3.47097
-3.51277
-3.57065
-3.63847
-3.6969
-3.73856
-3.78367
-3.84422
-3.91468
-3.96969
-4.03161
-4.10718
-4.17196
-4.24688
-4.33429
-4.3906
-4.42582
-4.47329
-4.56203
-4.65872
-4.73337
-4.77285
-4.82206
-4.90664
-4.98725
-5.06547
-5.14075
-5.23825
-5.30247
-5.34687
-5.41188
-5.48925
-5.58371
-5.67334
-5.7191
-5.75793
-5.83573
-5.95219
-6.01239
-6.0456
-6.1005
-6.17786
-6.29188
-6.31205
-6.37583
-6.46423
-6.57233
-6.66499
-6.72524
-6.83391
-6.9658
-7.05498
-7.15732
-7.2305
-7.36291
-7.45696
-7.49482
-7.5173
-7.54997
-7.60225
-7.69489
-7.8402
-7.95786
-8.02007
-8.07388
-8.0958
-8.11792
-8.14759
-8.15945
-8.1287
-8.0785
-7.9912
-7.85328
-7.66694
-7.42394
-7.12161
-6.7686
-6.35739
-5.87365
-5.33309
-4.70048
-4.03425
-3.26682
-2.51708
-1.89203
-1.33162
-0.89052
-0.514365
-0.237965
-0.028066
0.118069
0.203271
0.238054
0.234693
0.205395
0.277993
0.302186
0.306258
0.286491
0.235228
0.271762
0.28805
0.288851
0.283806
0.260117
0.190417
0.237625
0.248181
0.197534
0.24694
0.256111
0.242308
0.19294
0.230432
0.256476
0.248785
0.210141
0.227751
0.220343
0.161885
0.207123
0.227396
0.242138
0.223295
0.179833
0.234786
0.249892
0.230024
0.195197
0.217573
0.204472
0.210512
0.165535
0.22361
0.24827
0.24246
0.231499
0.215991
0.148248
0.172862
0.18208
0.133394
0.189255
0.156241
0.202584
0.192071
0.172968
0.193351
0.158625
0.143764
0.139904
0.123329
0.172217
0.209116
0.226608
0.223969
0.222927
0.218862
0.226006
0.218738
0.181448
0.223327
0.243071
0.229313
0.204508
0.19331
0.175492
0.172998
0.189352
0.188419
0.142228
0.20514
0.227642
0.220735
0.207763
0.156572
0.209627
0.159015
0.198871
0.152989
0.174278
0.20061
0.168039
0.182139
0.18415
0.143832
0.189251
0.206338
0.216189
0.182471
0.208775
0.200932
0.138617
0.142578
0.114682
0.110345
0.172247
0.179619
0.191949
0.176499
0.177471
0.115775
0.114293
0.174339
0.196445
0.185688
0.208655
0.187602
0.151887
0.120139
0.151176
0.117435
0.160173
0.184198
0.156502
0.113808
0.145695
0.177967
0.189388
0.221982
0.239572
0.252503
0.25413
0.240536
0.218388
0.132596
0.102767
0.101652
0.158525
0.181825
0.178034
0.135967
0.182674
0.167233
0.189345
0.187988
0.154264
0.182301
0.189472
0.223525
0.21902
0.190768
0.208212
0.183778
0.178018
0.18373
0.146551
0.17779
0.164262
0.179705
0.15133
0.138149
0.15256
0.0923362
0.0745817
0.118836
0.189144
0.209189
0.218807
0.209274
0.181323
0.175208
0.195238
0.1705
0.193561
0.165503
0.102402
0.136769
0.115534
0.0665118
0.127352
0.136408
0.167045
0.18025
0.167245
0.109722
0.177601
0.205857
0.217633
0.209418
0.180067
0.210902
0.177212
0.197385
0.212089
0.187232
0.201522
0.180993
0.113817
0.147075
0.139869
0.094313
0.152013
0.175553
0.17286
0.138153
0.166175
0.104869
0.0948063
0.146775
0.18441
0.193274
0.16617
0.106251
0.150039
0.154931
0.208313
0.224501
0.225555
0.205238
0.147309
0.187269
0.182563
0.200308
0.189811
0.154912
0.168445
0.108906
0.147965
0.165053
0.155001
0.14874
0.0739378
0.0780044
0.128745
0.127917
0.188739
0.188082
0.190209
0.181407
0.14658
0.123987
0.187246
0.210449
0.200765
0.132496
0.135257
0.192194
0.199676
0.163393
0.201998
0.19756
0.145025
0.0946254
0.140888
0.156407
0.120849
0.11303
0.0979655
0.173607
0.178419
0.142973
0.156257
0.167923
0.137439
0.159793
0.113685
0.116264
0.154526
0.120588
0.171294
0.160795
0.173441
0.14639
0.182099
0.182202
0.164018
0.139231
0.195415
0.196799
0.19759
0.184496
0.155724
0.128553
0.167382
0.161026
0.123784
0.139616
0.114703
0.138898
0.104923
0.123759
0.0863508
0.136199
0.117282
0.0991988
0.171877
0.20611
0.221248
0.219365
0.206936
0.190308
0.14258
0.169131
0.143435
0.165803
0.129053
0.176164
0.175432
0.13132
0.108131
0.156194
0.129155
0.179604
0.18385
0.205672
0.192891
0.186398
0.172556
0.165687
0.16862
0.163768
0.184724
0.175334
0.122561
0.123061
0.176764
0.197046
0.184417
0.182286
0.138519
0.15317
0.1818
0.192996
0.190222
0.165162
0.121897
0.164688
0.170081
0.134025
0.10852
0.157013
0.151851
0.16581
0.17325
0.154271
0.0889119
0.101946
0.149294
0.150004
0.16492
0.122834
0.167625
0.154331
0.105876
0.122449
0.0653702
-2.77983
-2.77775
-2.77407
-2.76912
-2.76265
-2.75452
-2.74336
-2.72998
-2.71479
-2.69701
-2.67804
-2.65572
-2.63131
-2.60484
-2.57547
-2.54555
-2.51518
-2.4836
-2.45226
-2.42262
-2.39312
-2.36317
-2.33457
-2.30882
-2.28646
-2.26609
-2.24628
-2.22724
-2.20892
-2.19197
-2.17736
-2.16495
-2.15559
-2.14903
-2.14306
-2.13777
-2.13673
-2.14133
-2.15004
-2.16076
-2.17217
-2.1837
-2.19632
-2.2116
-2.23034
-2.25255
-2.27716
-2.30218
-2.32777
-2.3556
-2.38462
-2.41295
-2.4395
-2.47214
-2.51399
-2.55743
-2.59508
-2.63415
-2.67888
-2.72175
-2.76403
-2.80985
-2.85939
-2.91468
-2.97531
-3.03513
-3.08804
-3.14239