/*--------------------------------*- C++ -*----------------------------------*\
| =========                 |                                                 |
| \\      /  F ield         | OpenFOAM: The Open Source CFD Toolbox           |
|  \\    /   O peration     | Version:  v2012                                 |
|   \\  /    A nd           | Website:  www.openfoam.com                      |
|    \\/     M anipulation  |                                                 |
\*---------------------------------------------------------------------------*/
FoamFile
{
    version     2.0;
    format      ascii;
    class       volVectorField;
    location    "450";
    object      U_filtered;
}
// * * * * * * * * * * * * * * * * * * * * * * * * * * * * * * * * * * * * * //

dimensions      [0 1 -1 0 0 0 0];


internalField   nonuniform List<vector> 
65536
(
(0.168485 -0.158634 0)
(0.490429 -0.143009 0)
(0.774539 -0.150199 0)
(1.08773 -0.184852 0)
(1.45738 -0.199812 0)
(1.81656 -0.179198 0)
(2.13268 -0.148379 0)
(2.40817 -0.15466 0)
(2.77135 -0.176734 0)
(3.12701 -0.176037 0)
(3.48666 -0.179388 0)
(3.85976 -0.185409 0)
(4.22664 -0.189244 0)
(4.61119 -0.187679 0)
(4.96496 -0.183461 0)
(5.32911 -0.189596 0)
(5.71666 -0.193252 0)
(6.09342 -0.187777 0)
(6.46583 -0.180227 0)
(6.84645 -0.181495 0)
(7.25725 -0.205637 0)
(7.73119 -0.241975 0)
(8.24088 -0.259125 0)
(8.74555 -0.247485 0)
(9.20986 -0.231033 0)
(9.65292 -0.218182 0)
(10.0732 -0.206211 0)
(10.4877 -0.212357 0)
(10.9366 -0.243187 0)
(11.4467 -0.262167 0)
(11.9588 -0.246746 0)
(12.4441 -0.228872 0)
(12.9332 -0.226055 0)
(13.421 -0.230615 0)
(13.9125 -0.23729 0)
(14.4109 -0.253508 0)
(14.9407 -0.27904 0)
(15.4944 -0.275368 0)
(15.9992 -0.240841 0)
(16.463 -0.217535 0)
(16.9264 -0.234105 0)
(17.4432 -0.274132 0)
(17.9885 -0.282425 0)
(18.4901 -0.270897 0)
(19.0049 -0.264895 0)
(19.5039 -0.232779 0)
(19.9264 -0.191317 0)
(20.3317 -0.184142 0)
(20.7748 -0.197564 0)
(21.2285 -0.208109 0)
(21.6861 -0.23223 0)
(22.1802 -0.269141 0)
(22.6717 -0.253189 0)
(23.0315 -0.177729 0)
(23.3274 -0.142558 0)
(23.7247 -0.164819 0)
(24.155 -0.187845 0)
(24.5389 -0.198259 0)
(24.8813 -0.181283 0)
(25.1701 -0.171989 0)
(25.5108 -0.203658 0)
(25.897 -0.198903 0)
(26.1954 -0.0919245 0)
(26.3238 -0.0236518 0)
(26.5325 -0.129938 0)
(26.9039 -0.191618 0)
(27.0804 -0.0430336 0)
(27.0461 0.0206504 0)
(27.265 -0.152647 0)
(27.6648 -0.154293 0)
(27.5975 0.0816249 0)
(27.3662 0.00696325 0)
(27.7474 -0.301295 0)
(28.2302 -0.16164 0)
(28.0076 0.253018 0)
(27.6805 0.206928 0)
(27.9493 -0.143631 0)
(28.2445 -0.119285 0)
(27.959 0.168927 0)
(27.5534 0.136705 0)
(27.5411 -0.169757 0)
(27.8383 -0.130406 0)
(27.7348 0.38527 0)
(26.947 0.497213 0)
(26.6871 -0.239582 0)
(27.6271 -0.620792 0)
(27.9287 0.213167 0)
(26.4331 0.910424 0)
(25.4071 0.323199 0)
(26.1879 -0.418813 0)
(26.854 -0.328623 0)
(26.312 0.00722181 0)
(25.8171 0.319588 0)
(25.4257 0.736697 0)
(24.5994 0.492 0)
(24.5053 -0.608133 0)
(25.6127 -0.910365 0)
(25.7824 0.362268 0)
(24.1285 1.19769 0)
(23.2253 0.162082 0)
(24.3026 -0.976419 0)
(25.1371 -0.321221 0)
(23.8264 0.962192 0)
(22.3462 0.699682 0)
(22.7666 -0.601626 0)
(23.9288 -0.796128 0)
(23.5729 0.359557 0)
(22.1144 0.938083 0)
(21.7193 0.0368857 0)
(22.6385 -0.874052 0)
(23.246 -0.415725 0)
(22.5504 0.637733 0)
(21.6943 0.66441 0)
(21.7264 -0.227422 0)
(22.1768 -0.653937 0)
(22.1525 -0.117043 0)
(21.698 0.424526 0)
(21.727 0.133572 0)
(22.4683 -0.484977 0)
(23.0995 -0.4487 0)
(22.7584 0.313833 0)
(21.6388 0.857357 0)
(20.8277 0.576982 0)
(20.9632 -0.178929 0)
(21.8729 -0.863839 0)
(23.0895 -1.09544 0)
(24.0608 -0.621839 0)
(24.1793 0.256646 0)
(23.4472 0.725306 0)
(22.6544 0.38435 0)
(22.5758 -0.33361 0)
(23.2273 -0.765397 0)
(24.0836 -0.67889 0)
(24.7516 -0.291935 0)
(25.1257 0.0862581 0)
(25.1417 0.255067 0)
(24.8707 0.0989282 0)
(24.7273 -0.219014 0)
(24.8979 -0.310497 0)
(25.1692 -0.071951 0)
(25.2607 0.164614 0)
(25.1988 0.151291 0)
(25.0542 0.0663522 0)
(24.7447 0.110284 0)
(24.2592 0.175854 0)
(23.7962 0.192547 0)
(23.333 0.284046 0)
(22.6223 0.51092 0)
(21.4615 0.753627 0)
(19.9247 0.866431 0)
(18.2948 0.852067 0)
(16.7219 0.783269 0)
(15.2933 0.696396 0)
(14.0266 0.613466 0)
(12.9051 0.541169 0)
(11.9155 0.467652 0)
(11.0679 0.409088 0)
(10.3113 0.348838 0)
(9.68758 0.297917 0)
(9.12168 0.272321 0)
(8.6086 0.239134 0)
(8.17125 0.204876 0)
(7.78368 0.177683 0)
(7.44314 0.164593 0)
(7.10685 0.169325 0)
(6.77204 0.165481 0)
(6.45898 0.155273 0)
(6.16277 0.13895 0)
(5.90933 0.123384 0)
(5.66896 0.115015 0)
(5.45082 0.101251 0)
(5.25781 0.0920221 0)
(5.07171 0.0969797 0)
(4.86183 0.109557 0)
(4.63988 0.10928 0)
(4.43753 0.0956575 0)
(4.25923 0.082428 0)
(4.10908 0.080961 0)
(3.94116 0.0774735 0)
(3.79329 0.0729683 0)
(3.64515 0.0813541 0)
(3.49352 0.0750722 0)
(3.3715 0.0517857 0)
(3.26108 0.0472415 0)
(3.15369 0.0480244 0)
(3.07037 0.0449542 0)
(2.98644 0.0430997 0)
(2.90344 0.0407731 0)
(2.81266 0.0409914 0)
(2.72882 0.0354679 0)
(2.65823 0.0343444 0)
(2.57863 0.0413745 0)
(2.50428 0.0508063 0)
(2.4061 0.0535819 0)
(2.31304 0.0516608 0)
(2.21996 0.0401763 0)
(2.14789 0.0328195 0)
(2.07053 0.0335069 0)
(2.01436 0.0270489 0)
(1.95357 0.0190266 0)
(1.90938 0.0234525 0)
(1.84889 0.0422239 0)
(1.76179 0.0434192 0)
(1.6975 0.0393749 0)
(1.62291 0.0296454 0)
(1.58643 0.0158788 0)
(1.53596 0.0120286 0)
(1.50436 0.0234553 0)
(1.44285 0.0381203 0)
(1.38202 0.0246255 0)
(1.35504 0.00892549 0)
(1.32798 0.00839664 0)
(1.29817 0.010342 0)
(1.27016 0.0048798 0)
(1.27094 0.0151243 0)
(1.22778 0.0246011 0)
(1.20038 0.0250288 0)
(1.15993 0.021528 0)
(1.12589 0.00808845 0)
(1.09926 0.0151605 0)
(1.039 0.0290644 0)
(0.977444 0.0287631 0)
(0.937579 0.00940379 0)
(0.942676 -0.00110999 0)
(0.936451 0.00206939 0)
(0.933457 -0.00155839 0)
(0.914545 -0.00159617 0)
(0.917702 0.00214615 0)
(0.922735 0.00789706 0)
(0.921079 0.00737735 0)
(0.901201 0.0119464 0)
(0.860865 0.00694022 0)
(0.868092 -0.00989541 0)
(0.872939 -0.000119319 0)
(0.846881 0.024104 0)
(0.798933 0.0292708 0)
(0.757088 0.0249685 0)
(0.706047 0.0198989 0)
(0.674214 0.00669621 0)
(0.671108 0.00166536 0)
(0.649186 -0.00246468 0)
(0.652271 -0.00328813 0)
(0.660542 0.00498635 0)
(0.641326 0.0093924 0)
(0.619032 0.00903652 0)
(0.584585 0.0133031 0)
(0.55587 0.0190471 0)
(0.550534 0.0157513 0)
(0.540273 0.00411781 0)
(0.537872 -0.00612475 0)
(0.532392 0.00201309 0)
(0.509383 0.015994 0)
(0.490978 0.0189666 0)
(0.46261 0.0111557 0)
(0.438555 -0.00370316 0)
(0.443275 -0.000389845 0)
(0.434398 0.016431 0)
(0.399827 0.0161923 0)
(0.387181 0.0129047 0)
(0.356219 0.00888232 0)
(0.339801 -0.00502898 0)
(0.352834 0.00509782 0)
(0.330498 0.0133987 0)
(0.317189 0.00498918 0)
(0.294718 0.00670658 0)
(0.272079 0.016288 0)
(0.239701 0.012261 0)
(0.22039 0.0011019 0)
(0.215041 -0.0116838 0)
(0.259293 -0.0122699 0)
(0.281846 -0.00591419 0)
(0.295731 -0.0168303 0)
(0.318906 -0.00904182 0)
(0.306394 0.0100193 0)
(0.291607 0.0113655 0)
(0.260494 0.00955425 0)
(0.254131 0.00920812 0)
(0.234786 0.00254305 0)
(0.230262 -0.00212036 0)
(0.217767 0.005553 0)
(0.215068 0.0120184 0)
(0.200278 0.0104879 0)
(0.17783 0.0147667 0)
(0.136014 0.0193548 0)
(0.116095 0.00738925 0)
(0.10974 -0.00772956 0)
(0.118008 -0.0139792 0)
(0.128393 0.000642247 0)
(0.125423 0.0125261 0)
(0.125068 0.00849089 0)
(0.0987525 0.0079417 0)
(0.0926907 0.0040254 0)
(0.0973727 -0.00927506 0)
(0.121217 -0.0140043 0)
(0.126459 -0.00303278 0)
(0.135127 0.00695165 0)
(0.111484 0.00889205 0)
(0.0969254 0.00931232 0)
(0.0737992 0.00486566 0)
(0.0693373 0.00123855 0)
(0.0548242 0.00676572 0)
(0.053409 0.00422371 0)
(0.0486885 -0.00217869 0)
(0.0568971 0.000801636 0)
(0.0579635 -0.010855 0)
(0.105591 -0.0263664 0)
(0.138363 -0.00827374 0)
(0.125851 0.00830398 0)
(0.109513 0.00959158 0)
(0.0842376 0.0121323 0)
(0.0604665 0.00476581 0)
(0.0611543 -0.0129683 0)
(0.0945881 -0.00457815 0)
(0.059819 0.00947567 0)
(0.0614747 0.0129981 0)
(0.0318025 0.0068334 0)
(0.0275362 0.005571 0)
(-0.00699281 0.00941597 0)
(-0.00828303 0.00578362 0)
(0.00739858 0.00879813 0)
(-0.00459426 0.0060927 0)
(-0.0119814 -0.00166658 0)
(-0.0176823 -0.003463 0)
(-0.0218956 -0.00266875 0)
(0.00428438 -0.00888195 0)
(0.015615 -0.0102803 0)
(0.0191297 -0.0114758 0)
(0.0366927 -0.0171989 0)
(0.0623948 -0.0211327 0)
(0.107022 -0.0250208 0)
(0.168466 -0.0166869 0)
(0.195865 0.00498231 0)
(0.175269 0.00719309 0)
(0.171457 0.00612778 0)
(0.13594 0.0136924 0)
(0.110108 0.0109614 0)
(0.0802674 0.0148901 0)
(0.0535414 0.0157877 0)
(0.0444662 0.00743107 0)
(0.0227409 0.00527927 0)
(0.0306635 -0.00101806 0)
(0.0261195 -0.0116232 0)
(0.0447649 -0.0150621 0)
(0.0578581 -0.00559234 0)
(0.0583131 0.00279128 0)
(0.0737412 0.0106965 0)
(0.0639893 0.00868283 0)
(0.04441 0.000239864 0)
(0.0331367 -0.00567565 0)
(0.0485181 -0.0139519 0)
(0.0725454 -0.0101923 0)
(0.0671928 0.00363315 0)
(0.0583533 0.0127615 0)
(0.0295594 0.00750059 0)
(0.0219548 -0.00137243 0)
(0.0219669 -0.000823056 0)
(0.00911267 -0.00874923 0)
(0.0239782 -0.00914016 0)
(0.0377943 4.54083e-05 0)
(0.0441972 0.00390023 0)
(0.053217 0.00396575 0)
(0.0487074 0.0056121 0)
(0.0288765 0.00890926 0)
(0.0133583 0.00891098 0)
(-0.00354996 0.00327138 0)
(-0.0098009 0.00933839 0)
(-0.0323032 0.00867793 0)
(-0.0296091 -0.00187509 0)
(-0.0307486 -0.00726016 0)
(-0.025103 -0.00901894 0)
(-0.0149004 -0.00164872 0)
(-0.0198956 0.000956181 0)
(0.00998166 0.00238885 0)
(0.000167335 -0.00222625 0)
(0.0144677 -0.00689176 0)
(0.0164756 -0.00726929 0)
(0.0381677 -0.00759815 0)
(0.042676 -0.0109223 0)
(0.0636402 -0.0198316 0)
(0.102114 -0.00241604 0)
(0.0680192 0.021791 0)
(0.0371138 0.021274 0)
(0.012666 0.0169118 0)
(-0.0126336 0.0130894 0)
(-0.0400905 0.00284431 0)
(-0.0465765 -0.000964313 0)
(-0.0649884 0.00402376 0)
(-0.0653888 0.0130109 0)
(-0.0974892 0.00693256 0)
(-0.0863898 -0.0108684 0)
(-0.0730068 -0.0112259 0)
(-0.0594362 -0.00314928 0)
(-0.0329204 0.00501641 0)
(-0.0510992 0.00283608 0)
(-0.049613 0.00325905 0)
(-0.0663779 0.00586407 0)
(-0.0805485 0.00425671 0)
(-0.0904926 0.00840085 0)
(-0.101648 0.00474704 0)
(-0.096347 -0.00509869 0)
(-0.0868288 -0.00881134 0)
(-0.0797563 -0.00623936 0)
(-0.0700438 -0.0128507 0)
(-0.0312699 -0.0188805 0)
(-0.0161394 -0.0089096 0)
(-0.027352 0.00894709 0)
(-0.0621034 0.0120424 0)
(-0.0678065 0.00488144 0)
(-0.0651786 -0.00510495 0)
(-0.0281568 -0.0143777 0)
(0.0133382 -0.00700744 0)
(0.0121882 -0.00335107 0)
(0.0226651 -0.0059793 0)
(0.0161923 -0.0010327 0)
(0.00206946 0.0107217 0)
(-0.0254352 0.015166 0)
(-0.0344409 -0.0033499 0)
(-0.00491306 -0.0170846 0)
(0.0153446 -0.00891326 0)
(0.0170303 0.0064869 0)
(-0.00452637 0.0145151 0)
(-0.0208861 0.00678201 0)
(-0.0320404 -0.00199482 0)
(-0.0301009 0.00283121 0)
(-0.0493558 0.00499488 0)
(-0.0621046 0.00886196 0)
(-0.0882051 0.0195251 0)
(-0.120552 0.0212504 0)
(-0.137578 0.00934499 0)
(-0.145693 0.00188389 0)
(-0.14894 0.00570143 0)
(-0.15194 0.000876015 0)
(-0.152085 -0.00749258 0)
(-0.138185 -0.00118424 0)
(-0.160641 -0.00420551 0)
(-0.123436 -0.0174646 0)
(-0.100814 -0.0110743 0)
(-0.0901335 -0.00621146 0)
(-0.0528338 -0.00677409 0)
(-0.0416319 -0.00892494 0)
(-0.0164066 -0.00196753 0)
(-0.040198 -0.00267773 0)
(-0.0233826 -0.00744294 0)
(-0.0312768 -0.00239171 0)
(-0.0213793 -0.00416708 0)
(-0.00915905 -0.0106841 0)
(0.0202707 -0.0188359 0)
(0.0488555 -0.0128066 0)
(0.0700338 -0.00113542 0)
(0.0684894 -0.00245503 0)
(0.0817374 -0.00787624 0)
(0.0838174 -0.0107552 0)
(0.0986115 -0.00966749 0)
(0.103769 0.00375032 0)
(0.0951929 0.00921425 0)
(0.0931265 0.0117618 0)
(0.0624779 0.0209454 0)
(0.0318265 0.0258805 0)
(-0.0179089 0.0118677 0)
(-0.0280117 -0.000887612 0)
(-0.0309777 0.00318822 0)
(-0.0427333 0.00972754 0)
(-0.0699212 0.0173655 0)
(-0.084087 0.00973201 0)
(-0.088151 0.00432803 0)
(-0.106967 0.00268934 0)
(-0.0916013 -0.00755279 0)
(-0.0851723 -0.0101596 0)
(-0.0707949 -0.00925512 0)
(-0.0598367 -0.0182424 0)
(-0.0199224 -0.0151092 0)
(0.00525635 0.00048186 0)
(-0.00640761 0.000248281 0)
(-0.00817205 0.012325 0)
(-0.0396012 0.0153912 0)
(-0.0518347 0.00573712 0)
(-0.0737685 0.00228242 0)
(-0.075221 -0.000892177 0)
(-0.0949717 -0.00164202 0)
(-0.08296 -0.00929389 0)
(-0.0564164 0.00206683 0)
(-0.0749351 0.00402766 0)
(-0.0277046 -0.00937895 0)
(-0.0017599 -0.0067857 0)
(-0.000477594 -0.0109656 0)
(0.0170353 -0.00615856 0)
(-0.0085923 0.00463783 0)
(-0.0206522 0.00512995 0)
(-0.0421639 0.00234302 0)
(-0.0463833 0.00822819 0)
(-0.0763655 -0.00288808 0)
(-0.0254356 -0.015811 0)
(0.00209453 0.00994032 0)
(-0.0350383 0.0231068 0)
(-0.0665135 0.0160958 0)
(-0.087885 0.00689546 0)
(-0.0904132 -0.00833812 0)
(-0.0635305 -0.0197808 0)
(-0.038345 -0.01805 0)
(-0.021214 -0.0114748 0)
(-0.0012296 -0.00383573 0)
(-0.00104783 0.00756603 0)
(0.00386177 0.0176773 0)
(-0.0241094 0.0168354 0)
(-0.0472949 0.00872074 0)
(-0.0635379 0.00932342 0)
(-0.0995556 0.00221155 0)
(-0.0726999 -0.0167513 0)
(-0.0436855 -0.0132495 0)
(-0.0467275 -0.00510193 0)
(-0.0396245 -0.00151479 0)
(-0.0419252 -0.0151337 0)
(0.160858 -0.49354 0)
(0.489071 -0.456093 0)
(0.812875 -0.440036 0)
(1.10724 -0.491154 0)
(1.43339 -0.522428 0)
(1.7596 -0.489197 0)
(2.0851 -0.436046 0)
(2.3806 -0.476939 0)
(2.7414 -0.53536 0)
(3.07421 -0.532322 0)
(3.41522 -0.546584 0)
(3.77871 -0.547604 0)
(4.12401 -0.555296 0)
(4.49068 -0.543498 0)
(4.83303 -0.527159 0)
(5.20062 -0.554708 0)
(5.59731 -0.563601 0)
(5.98963 -0.553627 0)
(6.38437 -0.564985 0)
(6.79048 -0.601988 0)
(7.21484 -0.671482 0)
(7.67483 -0.734182 0)
(8.12926 -0.747932 0)
(8.59145 -0.713863 0)
(9.03414 -0.668506 0)
(9.46452 -0.636961 0)
(9.89618 -0.62024 0)
(10.3361 -0.642625 0)
(10.7944 -0.707577 0)
(11.2836 -0.751596 0)
(11.7968 -0.742 0)
(12.3161 -0.736492 0)
(12.8489 -0.74175 0)
(13.3622 -0.739144 0)
(13.8559 -0.742988 0)
(14.3577 -0.764954 0)
(14.8606 -0.794957 0)
(15.3621 -0.773323 0)
(15.8514 -0.717599 0)
(16.339 -0.699377 0)
(16.8457 -0.736029 0)
(17.3598 -0.778527 0)
(17.862 -0.755183 0)
(18.3605 -0.736334 0)
(18.8718 -0.73985 0)
(19.3428 -0.679484 0)
(19.792 -0.626868 0)
(20.2636 -0.654855 0)
(20.7372 -0.689791 0)
(21.1922 -0.693911 0)
(21.6555 -0.710205 0)
(22.0945 -0.707672 0)
(22.4585 -0.588941 0)
(22.7874 -0.468498 0)
(23.2141 -0.541557 0)
(23.698 -0.654827 0)
(24.1062 -0.61893 0)
(24.4192 -0.521013 0)
(24.6939 -0.443125 0)
(24.9909 -0.451144 0)
(25.3434 -0.517687 0)
(25.6412 -0.480228 0)
(25.9083 -0.328736 0)
(26.2423 -0.307007 0)
(26.5715 -0.444729 0)
(26.7047 -0.35056 0)
(26.7569 -0.0919441 0)
(27.0483 -0.198227 0)
(27.4023 -0.460462 0)
(27.3953 -0.171747 0)
(27.225 0.225605 0)
(27.4596 -0.149935 0)
(27.798 -0.558647 0)
(27.665 -0.0919404 0)
(27.5284 0.305425 0)
(27.9327 -0.141963 0)
(28.2067 -0.415076 0)
(27.8607 0.114602 0)
(27.5194 0.530679 0)
(27.515 0.286762 0)
(27.4325 -0.110485 0)
(27.3909 -0.0598628 0)
(27.4328 0.510547 0)
(27.2555 0.559463 0)
(27.1939 -0.445337 0)
(27.3634 -0.621243 0)
(26.928 0.981804 0)
(26.0915 1.6179 0)
(26.2763 -0.0756297 0)
(26.9873 -1.03181 0)
(26.5034 0.203157 0)
(25.3465 1.0341 0)
(25.2763 0.568816 0)
(25.678 0.485617 0)
(25.3972 0.435791 0)
(24.8986 -0.414571 0)
(24.6127 -0.367921 0)
(24.2521 1.11906 0)
(24.1912 1.37136 0)
(24.6556 -0.342655 0)
(24.5348 -0.944161 0)
(23.477 0.795138 0)
(22.8279 1.831 0)
(23.4396 0.365274 0)
(23.8813 -0.992988 0)
(23.0575 -0.0147941 0)
(22.0567 1.45281 0)
(22.2629 0.922702 0)
(22.9608 -0.566253 0)
(22.7228 -0.662124 0)
(21.8467 0.502821 0)
(21.64 0.917048 0)
(22.243 0.163799 0)
(22.4235 -0.258631 0)
(21.7221 0.2264 0)
(21.0671 0.595277 0)
(21.3256 0.00203871 0)
(22.2017 -0.907735 0)
(22.7489 -0.896945 0)
(22.4938 0.155885 0)
(21.8096 1.14483 0)
(21.3028 1.07398 0)
(21.2696 0.0996219 0)
(21.6872 -0.870956 0)
(22.3956 -1.27481 0)
(23.1312 -1.10628 0)
(23.528 -0.47469 0)
(23.4087 0.356052 0)
(22.9939 0.798991 0)
(22.6885 0.4884 0)
(22.7319 -0.241624 0)
(23.1216 -0.749537 0)
(23.6853 -0.851993 0)
(24.2353 -0.753697 0)
(24.5435 -0.476373 0)
(24.5732 0.00332073 0)
(24.4949 0.319531 0)
(24.5345 0.19558 0)
(24.6413 -0.126861 0)
(24.7336 -0.284579 0)
(24.7405 -0.184079 0)
(24.6567 0.0708893 0)
(24.4075 0.403387 0)
(23.9765 0.70576 0)
(23.4443 0.792458 0)
(22.9097 0.752464 0)
(22.3035 0.908824 0)
(21.4579 1.37996 0)
(20.291 1.95953 0)
(18.8792 2.30936 0)
(17.4276 2.35523 0)
(16.0251 2.21683 0)
(14.7586 1.99221 0)
(13.6109 1.76647 0)
(12.6048 1.56046 0)
(11.6941 1.36116 0)
(10.9062 1.18847 0)
(10.2085 1.0268 0)
(9.5949 0.888617 0)
(9.05384 0.804041 0)
(8.56686 0.709586 0)
(8.13629 0.618825 0)
(7.74703 0.549305 0)
(7.37946 0.51187 0)
(7.03892 0.501399 0)
(6.72888 0.482682 0)
(6.42858 0.45461 0)
(6.14735 0.41203 0)
(5.88985 0.371316 0)
(5.64886 0.344545 0)
(5.43113 0.310632 0)
(5.22394 0.288418 0)
(5.02778 0.299513 0)
(4.81681 0.323703 0)
(4.6142 0.315923 0)
(4.42203 0.286475 0)
(4.24144 0.246414 0)
(4.09753 0.237616 0)
(3.93241 0.238475 0)
(3.77342 0.223681 0)
(3.63009 0.219116 0)
(3.52001 0.199869 0)
(3.40354 0.181784 0)
(3.25153 0.171619 0)
(3.1433 0.143298 0)
(3.06278 0.123291 0)
(2.98328 0.125039 0)
(2.89987 0.134152 0)
(2.79334 0.134948 0)
(2.70058 0.119917 0)
(2.61255 0.117585 0)
(2.52656 0.113849 0)
(2.48609 0.123671 0)
(2.4108 0.139217 0)
(2.339 0.136484 0)
(2.25845 0.126361 0)
(2.16342 0.118276 0)
(2.07923 0.101031 0)
(2.02233 0.0908211 0)
(1.94307 0.0864341 0)
(1.87259 0.0814641 0)
(1.82807 0.105354 0)
(1.76812 0.10757 0)
(1.71435 0.0995715 0)
(1.66348 0.0810145 0)
(1.62166 0.0709397 0)
(1.53857 0.0693943 0)
(1.48588 0.0690455 0)
(1.44693 0.0837027 0)
(1.41813 0.0618838 0)
(1.3824 0.0440507 0)
(1.33568 0.0469541 0)
(1.29011 0.046188 0)
(1.25462 0.0204107 0)
(1.25734 0.0260226 0)
(1.23036 0.044326 0)
(1.21337 0.0414707 0)
(1.20755 0.0519184 0)
(1.17103 0.05144 0)
(1.11632 0.0707693 0)
(1.04857 0.0921438 0)
(0.988103 0.0720225 0)
(0.958385 0.0248331 0)
(0.954115 0.00245359 0)
(0.9533 0.00735285 0)
(0.934126 0.0249525 0)
(0.881193 0.0181558 0)
(0.882416 -0.00887184 0)
(0.913444 -0.0100204 0)
(0.933933 0.0156233 0)
(0.90676 0.0491732 0)
(0.859104 0.0274541 0)
(0.855931 -0.0015291 0)
(0.831111 0.0221456 0)
(0.804963 0.0506411 0)
(0.799759 0.0609703 0)
(0.770785 0.0681973 0)
(0.721315 0.0633073 0)
(0.685141 0.0287186 0)
(0.675198 0.0231295 0)
(0.627539 0.0213453 0)
(0.613016 -0.00791773 0)
(0.634356 0.00547197 0)
(0.611895 0.0320786 0)
(0.575755 0.0468023 0)
(0.516482 0.049164 0)
(0.503849 0.0140061 0)
(0.546743 -0.00104649 0)
(0.561907 0.00759118 0)
(0.546254 0.0133338 0)
(0.506388 0.0255683 0)
(0.491155 0.0251379 0)
(0.506734 0.0265037 0)
(0.494368 0.0406366 0)
(0.4517 0.0218024 0)
(0.432238 0.00415964 0)
(0.431161 0.0263573 0)
(0.411282 0.0314444 0)
(0.406503 0.0310043 0)
(0.377744 0.0395069 0)
(0.340788 0.0089239 0)
(0.347413 0.00537082 0)
(0.351489 0.0230105 0)
(0.345141 0.0317178 0)
(0.298693 0.0383405 0)
(0.277244 0.0388201 0)
(0.257628 0.0389298 0)
(0.221341 0.0231067 0)
(0.201333 -0.0283123 0)
(0.247427 -0.0560455 0)
(0.283786 -0.0324161 0)
(0.287397 -0.0220935 0)
(0.272804 -0.00355785 0)
(0.26976 0.0150747 0)
(0.272744 0.0318854 0)
(0.234042 0.0249199 0)
(0.244783 0.0141029 0)
(0.228345 0.0184709 0)
(0.202774 0.0170035 0)
(0.182041 0.0067738 0)
(0.199723 0.00256926 0)
(0.20779 0.0238797 0)
(0.177114 0.0470993 0)
(0.146026 0.0397894 0)
(0.148861 0.0169899 0)
(0.132474 0.00388261 0)
(0.115977 -0.00676662 0)
(0.117295 -0.00972901 0)
(0.143843 -0.0106485 0)
(0.166033 0.0170382 0)
(0.130435 0.0234373 0)
(0.13826 -0.0033541 0)
(0.155099 -0.0193177 0)
(0.157802 -0.0153852 0)
(0.145788 -0.0106761 0)
(0.172943 0.00834605 0)
(0.147079 0.029509 0)
(0.125618 0.0294652 0)
(0.108508 0.02342 0)
(0.0860605 0.0183021 0)
(0.0670623 0.00949591 0)
(0.0812331 0.00230239 0)
(0.0680802 -0.00138313 0)
(0.0789599 -0.0104211 0)
(0.0826934 -0.0385276 0)
(0.118826 -0.0548804 0)
(0.134004 -0.0131744 0)
(0.123485 0.0193916 0)
(0.110641 0.0305902 0)
(0.0770811 0.0360699 0)
(0.0518922 0.0165561 0)
(0.0432994 -0.023126 0)
(0.0658745 0.00371169 0)
(0.0148836 0.0215931 0)
(0.0364248 0.012717 0)
(0.0190828 0.0254231 0)
(-0.00422175 0.0322104 0)
(-0.0423036 0.0256388 0)
(-0.0302179 -0.0207914 0)
(0.0247129 -0.0127923 0)
(0.0324172 0.0123175 0)
(0.0216044 0.013806 0)
(-0.00686926 0.012087 0)
(-0.0186989 -0.0207921 0)
(0.028451 -0.0306702 0)
(0.0233325 -0.00659871 0)
(0.0112355 -0.0116514 0)
(0.0110182 -0.0280782 0)
(0.0276066 -0.0512446 0)
(0.0633769 -0.0827796 0)
(0.126558 -0.0743851 0)
(0.175949 -0.0132501 0)
(0.170521 0.0157684 0)
(0.153511 0.0319386 0)
(0.1075 0.0459678 0)
(0.0864117 0.0431217 0)
(0.0414898 0.0396317 0)
(0.0460546 0.0185379 0)
(0.0532896 0.0215497 0)
(0.0282178 0.00720524 0)
(0.057976 -0.00431272 0)
(0.042353 -0.00407926 0)
(0.0332319 -0.0184928 0)
(0.0359488 -0.00958846 0)
(0.0379497 -0.0203617 0)
(0.0827126 -0.0186913 0)
(0.104917 0.0189123 0)
(0.0706723 0.0285491 0)
(0.0379367 -0.000938288 0)
(0.0473639 -0.0278399 0)
(0.0604749 -0.0108959 0)
(0.0416825 0.00818918 0)
(0.048254 0.0221924 0)
(0.022757 0.0267035 0)
(0.00211131 0.00672518 0)
(0.00125771 0.0124159 0)
(-0.035786 0.00511041 0)
(-0.0343758 -0.0196726 0)
(-0.00734385 -0.0204307 0)
(0.0170451 -0.0191352 0)
(0.0419219 -0.00926187 0)
(0.0472675 0.0184113 0)
(0.0220642 0.0256158 0)
(0.0195998 0.0231589 0)
(-0.00206678 0.0193504 0)
(-0.0110793 0.0194116 0)
(-0.0180858 0.0115591 0)
(-0.0119722 0.000907892 0)
(-0.023552 0.0033411 0)
(-0.0390543 -0.00642014 0)
(-0.0359244 -0.00302728 0)
(-0.0319061 -0.0259482 0)
(0.0271146 -0.0221113 0)
(0.0281446 -0.00285998 0)
(0.0316376 -0.00942553 0)
(0.0292659 -0.0172242 0)
(0.0470956 -0.0188164 0)
(0.0404823 -0.0157275 0)
(0.046331 -0.0399056 0)
(0.0810986 -0.00274275 0)
(0.0472091 0.0431919 0)
(0.0400139 0.03328 0)
(0.0323368 0.03245 0)
(0.025434 0.0388278 0)
(-0.00766349 0.031267 0)
(-0.0443937 0.0253701 0)
(-0.0763406 0.0149134 0)
(-0.060112 0.019722 0)
(-0.0796628 0.0138876 0)
(-0.0757598 -0.0135304 0)
(-0.0799884 -0.0159481 0)
(-0.0634781 -0.0371229 0)
(-0.00804143 -0.0134497 0)
(-0.0285026 0.0138308 0)
(-0.0314901 0.0118781 0)
(-0.0421054 0.0252605 0)
(-0.0707154 0.0192192 0)
(-0.0767795 0.0127683 0)
(-0.0722311 -0.000189067 0)
(-0.0557375 -0.00978754 0)
(-0.0575061 -0.00888375 0)
(-0.0646686 -0.0109684 0)
(-0.0587933 -0.0367125 0)
(-0.0259157 -0.0352061 0)
(-0.0332986 0.00450142 0)
(-0.0635849 0.0368984 0)
(-0.0959797 0.0283111 0)
(-0.0937714 -0.00159531 0)
(-0.086023 -0.0352629 0)
(-0.0375194 -0.0644432 0)
(0.0216528 -0.0335312 0)
(0.0252621 -0.00552319 0)
(0.0311718 0.00231511 0)
(0.00258029 0.0222463 0)
(-0.0245585 0.0310008 0)
(-0.0344086 0.022068 0)
(-0.0314545 -0.0168233 0)
(-0.0091146 -0.0323158 0)
(-0.00179799 -0.0125421 0)
(-0.00270433 0.013982 0)
(-0.0142783 0.0238527 0)
(-0.0190062 0.0205565 0)
(-0.0452106 0.0110341 0)
(-0.0413303 0.0142587 0)
(-0.0642503 0.0270842 0)
(-0.086696 0.0308316 0)
(-0.104577 0.0393328 0)
(-0.110244 0.0289365 0)
(-0.0957283 0.0169351 0)
(-0.11294 0.0106892 0)
(-0.107109 0.00180803 0)
(-0.103075 0.00381723 0)
(-0.113541 -0.00506395 0)
(-0.110732 0.0106147 0)
(-0.14647 -0.00952024 0)
(-0.107381 -0.0421042 0)
(-0.0971047 -0.0218549 0)
(-0.0902605 -0.0416017 0)
(-0.0295733 -0.041203 0)
(-0.0146829 -0.0277553 0)
(0.00696299 0.000737562 0)
(-0.022756 0.00941403 0)
(-0.0270434 -0.00087331 0)
(-0.0439114 0.000145048 0)
(-0.0339696 -0.0175615 0)
(-0.0187051 -0.0308399 0)
(-0.00126541 -0.0385095 0)
(0.014794 -0.0374168 0)
(0.0446866 -0.0181621 0)
(0.050629 -0.00914211 0)
(0.0570507 -0.0070086 0)
(0.0375204 -0.00616079 0)
(0.0388339 -0.0102771 0)
(0.0428169 -0.000548161 0)
(0.0581379 0.00109416 0)
(0.0713076 0.0201471 0)
(0.0457839 0.0400505 0)
(0.0465059 0.0533017 0)
(0.00464403 0.0471013 0)
(-0.0273442 0.0124958 0)
(-0.0228071 0.0101665 0)
(-0.041807 0.0274632 0)
(-0.0693215 0.0226007 0)
(-0.0485931 0.00702991 0)
(-0.0557835 0.01755 0)
(-0.074249 -0.000403121 0)
(-0.0479781 -0.0158035 0)
(-0.0609099 -0.0118159 0)
(-0.0546895 -0.0166914 0)
(-0.054067 -0.0333646 0)
(-0.0267281 -0.0503519 0)
(0.0150425 -0.0136573 0)
(-0.00108784 0.0132594 0)
(-0.0125693 0.0217393 0)
(-0.0168324 0.0289908 0)
(-0.0339191 0.0292142 0)
(-0.0633732 0.0218724 0)
(-0.0773553 0.0227068 0)
(-0.123417 0.00978382 0)
(-0.103228 -0.0291422 0)
(-0.0741167 -0.0101733 0)
(-0.0801392 -0.0326814 0)
(0.00193891 -0.0645234 0)
(0.0481415 -0.020658 0)
(0.0413129 -0.00848332 0)
(0.0355379 0.0141937 0)
(-0.0100894 0.0327722 0)
(-0.0292386 0.028473 0)
(-0.0679025 0.0233382 0)
(-0.0829941 0.0263113 0)
(-0.105743 -0.0179985 0)
(-0.0506111 -0.0620962 0)
(-0.00864361 0.000390365 0)
(-0.0296245 0.0464816 0)
(-0.0544444 0.0366652 0)
(-0.0732655 0.0181501 0)
(-0.0759076 -0.016124 0)
(-0.0545929 -0.0319019 0)
(-0.0580379 -0.0242125 0)
(-0.0542282 -0.0247896 0)
(-0.0318035 -0.015763 0)
(-0.0239489 -0.0119806 0)
(0.0248567 0.00612481 0)
(0.0257409 0.0354475 0)
(0.0121916 0.031019 0)
(-0.0157168 0.0438358 0)
(-0.0654883 0.00778019 0)
(-0.0287918 -0.0388614 0)
(-0.0176906 -0.0124612 0)
(-0.0437684 0.000994931 0)
(-0.0582754 -0.00334303 0)
(-0.0575513 -0.0667285 0)
(0.155127 -0.805228 0)
(0.459319 -0.791404 0)
(0.805743 -0.76449 0)
(1.11279 -0.801923 0)
(1.42917 -0.849067 0)
(1.73433 -0.827462 0)
(2.0733 -0.765366 0)
(2.39691 -0.807309 0)
(2.73025 -0.867279 0)
(3.04863 -0.84657 0)
(3.34826 -0.88085 0)
(3.70335 -0.891072 0)
(4.03671 -0.898128 0)
(4.38447 -0.893322 0)
(4.74379 -0.889867 0)
(5.12091 -0.950521 0)
(5.51953 -0.978943 0)
(5.9342 -0.971211 0)
(6.34861 -0.977508 0)
(6.74683 -1.00847 0)
(7.1376 -1.0872 0)
(7.53706 -1.15404 0)
(7.92916 -1.17355 0)
(8.36649 -1.14964 0)
(8.83342 -1.10099 0)
(9.31121 -1.07668 0)
(9.79073 -1.07415 0)
(10.2653 -1.10705 0)
(10.7355 -1.18782 0)
(11.2087 -1.26187 0)
(11.7036 -1.27639 0)
(12.2116 -1.2777 0)
(12.7383 -1.26889 0)
(13.2446 -1.23388 0)
(13.7211 -1.22899 0)
(14.2164 -1.25429 0)
(14.7215 -1.27968 0)
(15.2303 -1.26196 0)
(15.7356 -1.21302 0)
(16.2322 -1.2071 0)
(16.7494 -1.25069 0)
(17.2615 -1.28673 0)
(17.7721 -1.27944 0)
(18.304 -1.27726 0)
(18.8033 -1.2436 0)
(19.2668 -1.1489 0)
(19.7573 -1.10752 0)
(20.2411 -1.12512 0)
(20.6787 -1.12192 0)
(21.1184 -1.12225 0)
(21.599 -1.13036 0)
(22.0146 -1.06775 0)
(22.3738 -0.94057 0)
(22.8324 -0.927559 0)
(23.3563 -1.04873 0)
(23.7056 -1.0535 0)
(23.9753 -0.905621 0)
(24.3156 -0.782009 0)
(24.658 -0.749088 0)
(24.9605 -0.818223 0)
(25.2965 -0.851693 0)
(25.651 -0.760573 0)
(25.9916 -0.688976 0)
(26.3307 -0.683073 0)
(26.5349 -0.588682 0)
(26.5462 -0.372314 0)
(26.75 -0.379697 0)
(27.2712 -0.620053 0)
(27.4044 -0.495302 0)
(27.0486 0.0300396 0)
(27.2241 0.0277261 0)
(27.8879 -0.560418 0)
(27.791 -0.503436 0)
(27.3249 0.117488 0)
(27.6757 -0.00423955 0)
(28.1097 -0.466791 0)
(27.706 -0.0657403 0)
(27.3851 0.577372 0)
(27.6587 0.525686 0)
(27.6553 0.232042 0)
(27.2927 -0.0419336 0)
(27.2536 -0.123789 0)
(27.323 0.528381 0)
(27.2667 0.748735 0)
(27.1948 -0.350142 0)
(26.8077 -0.352377 0)
(26.2037 1.50045 0)
(26.2982 1.57686 0)
(26.8298 -0.568988 0)
(26.4727 -0.646876 0)
(25.4838 1.3177 0)
(25.2621 1.24758 0)
(25.6343 -0.0048041 0)
(25.4948 0.622244 0)
(24.9162 1.28614 0)
(24.3557 0.173726 0)
(23.9462 -0.25411 0)
(24.1145 0.806263 0)
(24.7199 0.812788 0)
(24.4635 -0.170538 0)
(23.1211 0.206929 0)
(22.398 1.41058 0)
(23.2037 1.01819 0)
(23.8292 -0.343388 0)
(22.8423 -0.217311 0)
(21.6057 1.03984 0)
(21.8641 1.17156 0)
(22.8171 0.0393617 0)
(22.5658 -0.416154 0)
(21.3693 0.24057 0)
(21.009 0.682576 0)
(21.7987 0.248521 0)
(22.2629 -0.112944 0)
(21.5851 0.297193 0)
(20.7867 0.705575 0)
(20.871 0.288408 0)
(21.5717 -0.713116 0)
(21.9651 -1.29669 0)
(21.7137 -0.78686 0)
(21.2014 0.497652 0)
(20.876 1.51577 0)
(20.8662 1.406 0)
(21.1298 0.196982 0)
(21.6064 -1.31119 0)
(22.1223 -2.32357 0)
(22.366 -2.24419 0)
(22.1303 -0.900894 0)
(21.7092 0.801118 0)
(21.686 1.44718 0)
(22.2055 0.651221 0)
(22.8055 -0.769067 0)
(23.1585 -1.72898 0)
(23.3419 -1.80262 0)
(23.4664 -1.15503 0)
(23.4107 -0.251468 0)
(23.3041 0.305207 0)
(23.4218 0.14218 0)
(23.7892 -0.361755 0)
(24.097 -0.506794 0)
(24.1922 -0.164328 0)
(24.1076 0.248063 0)
(23.9816 0.498791 0)
(23.7303 0.762534 0)
(23.2942 1.09487 0)
(22.755 1.26563 0)
(22.1552 1.35551 0)
(21.353 1.75684 0)
(20.2298 2.54876 0)
(18.8976 3.3546 0)
(17.5278 3.74865 0)
(16.2624 3.72337 0)
(15.0825 3.46283 0)
(14.0227 3.11559 0)
(13.0382 2.77063 0)
(12.1709 2.45867 0)
(11.3645 2.16651 0)
(10.6559 1.89574 0)
(10.0206 1.66177 0)
(9.43889 1.45527 0)
(8.92676 1.30463 0)
(8.46831 1.1596 0)
(8.0569 1.02783 0)
(7.66821 0.937779 0)
(7.29338 0.874398 0)
(6.95569 0.82259 0)
(6.66461 0.780232 0)
(6.37308 0.739986 0)
(6.10011 0.680076 0)
(5.84968 0.624323 0)
(5.60476 0.577991 0)
(5.3904 0.528876 0)
(5.17785 0.498279 0)
(4.97629 0.506798 0)
(4.7731 0.527051 0)
(4.57693 0.506953 0)
(4.39353 0.471403 0)
(4.22115 0.409693 0)
(4.07564 0.393168 0)
(3.90982 0.404203 0)
(3.75441 0.379197 0)
(3.61579 0.337544 0)
(3.51872 0.3027 0)
(3.4114 0.321563 0)
(3.25783 0.310167 0)
(3.14377 0.240829 0)
(3.04666 0.206304 0)
(2.95998 0.207148 0)
(2.88336 0.23265 0)
(2.7681 0.243234 0)
(2.66831 0.218255 0)
(2.57116 0.210436 0)
(2.48827 0.169766 0)
(2.46522 0.169092 0)
(2.40386 0.201666 0)
(2.34246 0.206159 0)
(2.26014 0.216706 0)
(2.16986 0.21398 0)
(2.078 0.175376 0)
(2.01949 0.164583 0)
(1.9387 0.16986 0)
(1.86264 0.13949 0)
(1.83383 0.148997 0)
(1.77541 0.158706 0)
(1.7177 0.145937 0)
(1.67976 0.123454 0)
(1.64611 0.141573 0)
(1.55711 0.147159 0)
(1.49427 0.114536 0)
(1.45605 0.105204 0)
(1.4331 0.0887057 0)
(1.39471 0.0903634 0)
(1.35145 0.0995207 0)
(1.30355 0.0909446 0)
(1.26712 0.0380888 0)
(1.27368 0.0387092 0)
(1.23173 0.0686004 0)
(1.19894 0.047024 0)
(1.20203 0.0628329 0)
(1.18369 0.099133 0)
(1.1314 0.13783 0)
(1.06844 0.157764 0)
(0.999143 0.120013 0)
(0.9498 0.0436324 0)
(0.959819 0.00416578 0)
(0.953844 0.0214594 0)
(0.930539 0.0697274 0)
(0.870478 0.0502486 0)
(0.86887 -0.0296798 0)
(0.902815 -0.043613 0)
(0.918422 0.0167733 0)
(0.902205 0.0888628 0)
(0.837108 0.0597895 0)
(0.837448 0.0190644 0)
(0.819373 0.0518432 0)
(0.790014 0.0556463 0)
(0.795426 0.0655382 0)
(0.771589 0.105842 0)
(0.714725 0.106944 0)
(0.685289 0.0539722 0)
(0.676183 0.0608088 0)
(0.617384 0.060066 0)
(0.599208 -0.0111632 0)
(0.616702 0.00486163 0)
(0.597732 0.0669154 0)
(0.551986 0.103041 0)
(0.48907 0.0847134 0)