/*--------------------------------*- C++ -*----------------------------------*\
| =========                 |                                                 |
| \\      /  F ield         | OpenFOAM: The Open Source CFD Toolbox           |
|  \\    /   O peration     | Version:  v2012                                 |
|   \\  /    A nd           | Website:  www.openfoam.com                      |
|    \\/     M anipulation  |                                                 |
\*---------------------------------------------------------------------------*/
FoamFile
{
    version     2.0;
    format      ascii;
    class       volScalarField;
    location    "0";
    object      ph_rgh;
}
// * * * * * * * * * * * * * * * * * * * * * * * * * * * * * * * * * * * * * //

dimensions      [1 -1 -2 0 0 0 0];


internalField   nonuniform List<scalar> 
16384
(
102948
102947
102945
102942
102938
102934
102928
102922
102915
102907
102899
102889
102880
102869
102858
102847
102835
102823
102811
102799
102786
102773
102760
102747
102734
102721
102709
102696
102684
102671
102659
102648
102636
102625
102614
102604
102593
102584
102574
102565
102556
102547
102539
102531
102524
102517
102510
102503
102497
102491
102485
102479
102474
102469
102464
102460
102455
102451
102447
102444
102440
102437
102433
102430
102427
102425
102422
102420
102417
102415
102413
102411
102409
102407
102405
102403
102402
102400
102399
102398
102396
102395
102394
102393
102392
102391
102390
102389
102388
102387
102386
102386
102385
102384
102384
102383
102382
102382
102381
102381
102380
102380
102380
102379
102379
102378
102378
102378
102377
102377
102377
102377
102376
102376
102376
102376
102375
102375
102375
102375
102375
102375
102374
102374
102374
102374
102374
102374
102374
102374
102373
102373
102373
102373
102373
102373
102373
102373
102373
102373
102373
102373
102373
102373
102372
102372
102372
102372
102372
102372
102372
102372
102372
102372
102372
102372
102372
102372
102372
102372
102372
102372
102372
102372
102372
102372
102372
102372
102372
102372
102372
102372
102372
102372
102372
102372
102372
102372
102372
102372
102372
102372
102372
102372
102372
102372
102372
102372
102372
102372
102372
102372
102372
102372
102372
102372
102372
102372
102372
102372
102372
102372
102372
102372
102372
102372
102372
102372
102372
102372
102372
102372
102372
102372
102372
102372
102372
102372
102372
102372
102372
102372
102372
102372
102372
102372
102372
102372
102372
102372
102372
102372
102372
102372
102372
102372
102372
102372
102372
102372
102372
102372
102372
102372
102372
102372
102372
102372
102372
102372
102372
102372
102372
102372
102372
102372
102930
102929
102927
102924
102921
102916
102911
102904
102897
102889
102881
102871
102862
102851
102840
102829
102817
102805
102793
102780
102767
102754
102741
102729
102716
102703
102690
102677
102665
102653
102641
102629
102617
102606
102595
102585
102575
102565
102555
102546
102537
102529
102520
102512
102505
102498
102491
102484
102478
102472
102466
102461
102455
102450
102446
102441
102437
102433
102429
102425
102421
102418
102415
102412
102409
102406
102403
102401
102399
102396
102394
102392
102390
102388
102387
102385
102383
102382
102380
102379
102378
102376
102375
102374
102373
102372
102371
102370
102369
102369
102368
102367
102366
102366
102365
102365
102364
102363
102363
102362
102362
102361
102361
102361
102360
102360
102360
102359
102359
102359
102358
102358
102358
102358
102357
102357
102357
102357
102357
102356
102356
102356
102356
102356
102356
102355
102355
102355
102355
102355
102355
102355
102355
102355
102355
102354
102354
102354
102354
102354
102354
102354
102354
102354
102354
102354
102354
102354
102354
102354
102354
102354
102354
102354
102354
102354
102353
102353
102353
102353
102353
102353
102353
102353
102353
102353
102353
102353
102353
102353
102353
102353
102353
102353
102353
102353
102353
102353
102353
102353
102353
102353
102353
102353
102353
102353
102353
102353
102353
102353
102353
102353
102353
102353
102353
102353
102353
102353
102353
102353
102353
102353
102353
102353
102353
102353
102353
102353
102353
102353
102353
102353
102353
102353
102353
102353
102353
102353
102353
102353
102353
102353
102353
102353
102353
102353
102353
102353
102353
102353
102353
102353
102353
102353
102353
102353
102353
102353
102353
102353
102353
102353
102353
102353
102353
102353
102353
102353
102353
102353
102353
102353
102353
102353
102353
102353
102895
102894
102892
102889
102885
102881
102875
102869
102862
102854
102845
102836
102826
102815
102804
102793
102781
102769
102756
102744
102731
102718
102705
102692
102678
102666
102653
102640
102627
102615
102603
102591
102580
102569
102558
102547
102537
102527
102518
102508
102499
102491
102483
102475
102467
102460
102453
102447
102440
102434
102429
102423
102418
102413
102408
102404
102399
102395
102391
102388
102384
102381
102378
102375
102372
102369
102366
102364
102361
102359
102357
102355
102353
102351
102349
102348
102346
102345
102343
102342
102341
102339
102338
102337
102336
102335
102334
102333
102332
102332
102331
102330
102329
102329
102328
102328
102327
102326
102326
102325
102325
102325
102324
102324
102323
102323
102323
102322
102322
102322
102321
102321
102321
102321
102320
102320
102320
102320
102320
102319
102319
102319
102319
102319
102319
102319
102318
102318
102318
102318
102318
102318
102318
102318
102318
102318
102318
102317
102317
102317
102317
102317
102317
102317
102317
102317
102317
102317
102317
102317
102317
102317
102317
102317
102317
102317
102317
102317
102317
102317
102317
102316
102316
102316
102316
102316
102316
102316
102316
102316
102316
102316
102316
102316
102316
102316
102316
102316
102316
102316
102316
102316
102316
102316
102316
102316
102316
102316
102316
102316
102316
102316
102316
102316
102316
102316
102316
102316
102316
102316
102316
102316
102316
102316
102316
102316
102316
102316
102316
102316
102316
102316
102316
102316
102316
102316
102316
102316
102316
102316
102316
102316
102316
102316
102316
102316
102316
102316
102316
102316
102316
102316
102316
102316
102316
102316
102316
102316
102316
102316
102316
102316
102316
102316
102316
102316
102316
102316
102316
102316
102316
102316
102316
102316
102316
102316
102843
102842
102840
102837
102833
102828
102823
102816
102809
102801
102792
102782
102772
102762
102750
102739
102727
102714
102702
102689
102676
102663
102649
102636
102623
102610
102597
102584
102572
102559
102547
102535
102524
102513
102502
102491
102481
102471
102461
102452
102443
102435
102427
102419
102411
102404
102397
102391
102384
102378
102373
102367
102362
102357
102352
102348
102344
102340
102336
102332
102329
102325
102322
102319
102316
102313
102311
102308
102306
102304
102302
102300
102298
102296
102294
102292
102291
102289
102288
102287
102285
102284
102283
102282
102281
102280
102279
102278
102277
102276
102276
102275
102274
102274
102273
102272
102272
102271
102271
102270
102270
102269
102269
102269
102268
102268
102268
102267
102267
102267
102266
102266
102266
102266
102265
102265
102265
102265
102265
102264
102264
102264
102264
102264
102264
102264
102263
102263
102263
102263
102263
102263
102263
102263
102263
102263
102262
102262
102262
102262
102262
102262
102262
102262
102262
102262
102262
102262
102262
102262
102262
102262
102262
102262
102262
102262
102262
102262
102261
102261
102261
102261
102261
102261
102261
102261
102261
102261
102261
102261
102261
102261
102261
102261
102261
102261
102261
102261
102261
102261
102261
102261
102261
102261
102261
102261
102261
102261
102261
102261
102261
102261
102261
102261
102261
102261
102261
102261
102261
102261
102261
102261
102261
102261
102261
102261
102261
102261
102261
102261
102261
102261
102261
102261
102261
102261
102261
102261
102261
102261
102261
102261
102261
102261
102261
102261
102261
102261
102261
102261
102261
102261
102261
102261
102261
102261
102261
102261
102261
102261
102261
102261
102261
102261
102261
102261
102261
102261
102261
102261
102261
102261
102261
102261
102261
102261
102773
102772
102770
102767
102763
102759
102753
102746
102739
102730
102721
102712
102701
102690
102679
102667
102655
102642
102629
102616
102603
102590
102576
102563
102550
102536
102523
102510
102498
102485
102473
102461
102449
102438
102427
102416
102406
102396
102387
102378
102369
102360
102352
102344
102337
102330
102323
102316
102310
102304
102299
102293
102288
102283
102278
102274
102270
102266
102262
102258
102255
102251
102248
102245
102242
102240
102237
102235
102232
102230
102228
102226
102224
102222
102221
102219
102218
102216
102215
102213
102212
102211
102210
102209
102208
102207
102206
102205
102204
102203
102202
102202
102201
102200
102200
102199
102199
102198
102198
102197
102197
102196
102196
102195
102195
102195
102194
102194
102194
102193
102193
102193
102193
102192
102192
102192
102192
102192
102191
102191
102191
102191
102191
102191
102191
102190
102190
102190
102190
102190
102190
102190
102190
102190
102190
102189
102189
102189
102189
102189
102189
102189
102189
102189
102189
102189
102189
102189
102189
102189
102189
102189
102189
102189
102189
102188
102188
102188
102188
102188
102188
102188
102188
102188
102188
102188
102188
102188
102188
102188
102188
102188
102188
102188
102188
102188
102188
102188
102188
102188
102188
102188
102188
102188
102188
102188
102188
102188
102188
102188
102188
102188
102188
102188
102188
102188
102188
102188
102188
102188
102188
102188
102188
102188
102188
102188
102188
102188
102188
102188
102188
102188
102188
102188
102188
102188
102188
102188
102188
102188
102188
102188
102188
102188
102188
102188
102188
102188
102188
102188
102188
102188
102188
102188
102188
102188
102188
102188
102188
102188
102188
102188
102188
102188
102188
102188
102188
102188
102188
102188
102188
102188
102188
102188
102188
102188
102687
102686
102684
102681
102677
102672
102666
102659
102652
102643
102634
102624
102613
102602
102590
102578
102566
102553
102540
102526
102513
102499
102485
102472
102458
102445
102431
102418
102405
102393
102381
102368
102357
102345
102334
102324
102313
102304
102294
102285
102276
102268
102259
102252
102244
102237
102230
102224
102218
102212
102206
102201
102196
102191
102186
102182
102178
102174
102170
102166
102163
102160
102157
102154
102151
102148
102146
102143
102141
102139
102137
102135
102133
102131
102129
102128
102126
102125
102123
102122
102121
102120
102119
102118
102117
102116
102115
102114
102113
102112
102111
102111
102110
102109
102109
102108
102108
102107
102107
102106
102106
102105
102105
102105
102104
102104
102103
102103
102103
102103
102102
102102
102102
102102
102101
102101
102101
102101
102101
102100
102100
102100
102100
102100
102100
102100
102099
102099
102099
102099
102099
102099
102099
102099
102099
102099
102099
102098
102098
102098
102098
102098
102098
102098
102098
102098
102098
102098
102098
102098
102098
102098
102098
102098
102098
102098
102098
102098
102098
102098
102098
102098
102097
102097
102097
102097
102097
102097
102097
102097
102097
102097
102097
102097
102097
102097
102097
102097
102097
102097
102097
102097
102097
102097
102097
102097
102097
102097
102097
102097
102097
102097
102097
102097
102097
102097
102097
102097
102097
102097
102097
102097
102097
102097
102097
102097
102097
102097
102097
102097
102097
102097
102097
102097
102097
102097
102097
102097
102097
102097
102097
102097
102097
102097
102097
102097
102097
102097
102097
102097
102097
102097
102097
102097
102097
102097
102097
102097
102097
102097
102097
102097
102097
102097
102097
102097
102097
102097
102097
102097
102097
102097
102097
102097
102097
102097
102585
102584
102581
102578
102574
102569
102563
102556
102548
102539
102529
102519
102508
102497
102484
102472
102459
102446
102432
102418
102405
102391
102377
102363
102349
102335
102322
102308
102295
102283
102270
102258
102246
102235
102224
102213
102203
102193
102183
102174
102165
102157
102149
102141
102134
102127
102120
102114
102107
102102
102096
102091
102086
102081
102076
102072
102068
102064
102060
102057
102053
102050
102047
102044
102041
102039
102036
102034
102032
102030
102027
102026
102024
102022
102020
102019
102017
102016
102014
102013
102012
102011
102010
102009
102008
102007
102006
102005
102004
102003
102003
102002
102001
102001
102000
102000
101999
101998
101998
101998
101997
101997
101996
101996
101996
101995
101995
101995
101994
101994
101994
101993
101993
101993
101993
101993
101992
101992
101992
101992
101992
101992
101991
101991
101991
101991
101991
101991
101991
101991
101990
101990
101990
101990
101990
101990
101990
101990
101990
101990
101990
101990
101990
101990
101990
101989
101989
101989
101989
101989
101989
101989
101989
101989
101989
101989
101989
101989
101989
101989
101989
101989
101989
101989
101989
101989
101989
101989
101989
101989
101989
101989
101989
101989
101989
101989
101989
101989
101989
101989
101989
101989
101989
101989
101989
101989
101989
101989
101989
101989
101989
101989
101989
101989
101989
101989
101989
101989
101989
101989
101989
101989
101989
101989
101989
101989
101989
101989
101989
101989
101989
101989
101989
101989
101989
101989
101989
101989
101989
101989
101989
101989
101989
101989
101989
101989
101989
101989
101989
101989
101989
101989
101989
101989
101989
101989
101989
101989
101989
101989
101989
101989
101989
101989
101989
101989
101989
101989
101989
101989
101989
101989
101989
101989
101989
101989
102466
102465
102462
102459
102455
102449
102443
102435
102427
102418
102408
102397
102386
102374
102362
102349
102335
102322
102308
102293
102279
102265
102250
102236
102222
102208
102194
102181
102167
102154
102142
102130
102118
102106
102095
102084
102074
102064
102054
102045
102037
102028
102020
102013
102005
101998
101992
101985
101979
101973
101968
101963
101958
101953
101949
101944
101940
101936
101933
101929
101926
101923
101920
101917
101914
101912
101909
101907
101905
101903
101901
101899
101897
101895
101894
101892
101891
101889
101888
101887
101886
101884
101883
101882
101881
101880
101879
101879
101878
101877
101876
101876
101875
101874
101874
101873
101873
101872
101872
101871
101871
101870
101870
101870
101869
101869
101869
101868
101868
101868
101868
101867
101867
101867
101867
101866
101866
101866
101866
101866
101866
101865
101865
101865
101865
101865
101865
101865
101865
101865
101864
101864
101864
101864
101864
101864
101864
101864
101864
101864
101864
101864
101864
101864
101864
101863
101863
101863
101863
101863
101863
101863
101863
101863
101863
101863
101863
101863
101863
101863
101863
101863
101863
101863
101863
101863
101863
101863
101863
101863
101863
101863
101863
101863
101863
101863
101863
101863
101863
101863
101863
101863
101863
101863
101863
101863
101863
101863
101863
101863
101863
101863
101863
101863
101863
101863
101863
101863
101863
101863
101863
101863
101863
101863
101863
101863
101863
101863
101863
101863
101863
101863
101863
101863
101863
101863
101863
101863
101863
101863
101863
101863
101863
101863
101863
101863
101863
101863
101863
101863
101863
101863
101863
101863
101863
101863
101863
101863
101863
101863
101863
101863
101863
101863
101863
101863
101863
101863
101863
101863
101863
101863
101863
101863
101863
101863
102331
102329
102327
102324
102319
102313
102307
102299
102290
102281
102270
102259
102247
102235
102222
102208
102195
102180
102166
102151
102136
102122
102107
102092
102078
102063
102049
102035
102022
102009
101996
101983
101971
101960
101949
101938
101927
101917
101908
101899
101890
101882
101874
101866
101859
101852
101846
101839
101833
101828
101822
101817
101812
101808
101803
101799
101795
101791
101788
101784
101781
101778
101775
101772
101770
101767
101765
101763
101760
101758
101757
101755
101753
101751
101750
101748
101747
101745
101744
101743
101742
101741
101740
101739
101738
101737
101736
101735
101734
101733
101733
101732
101731
101731
101730
101730
101729
101729
101728
101728
101727
101727
101727
101726
101726
101726
101725
101725
101725
101724
101724
101724
101724
101724
101723
101723
101723
101723
101723
101722
101722
101722
101722
101722
101722
101722
101722
101721
101721
101721
101721
101721
101721
101721
101721
101721
101721
101721
101721
101720
101720
101720
101720
101720
101720
101720
101720
101720
101720
101720
101720
101720
101720
101720
101720
101720
101720
101720
101720
101720
101720
101720
101720
101720
101720
101720
101720
101720
101720
101720
101720
101720
101720
101720
101720
101720
101720
101720
101720
101720
101720
101719
101719
101719
101719
101719
101719
101719
101719
101719
101719
101719
101719
101719
101719
101719
101719
101719
101719
101719
101719
101719
101719
101719
101719
101719
101719
101719
101719
101719
101719
101719
101719
101719
101719
101719
101719
101719
101719
101719
101719
101719
101719
101719
101719
101719
101719
101719
101719
101719
101719
101719
101719
101719
101719
101719
101719
101719
101719
101719
101719
101719
101719
101719
101719
101719
101719
101719
101719
101719
101719
101719
101719
101719
101719
101719
102180
102179
102176
102172
102168
102162
102155
102146
102137
102127
102116
102105
102092
102079
102066
102052
102037
102022
102007
101992
101977
101961
101946
101931
101916
101901
101887
101873
101859
101845
101832
101820
101807
101796
101784
101774
101763
101753
101744
101735
101726
101718
101710
101702
101695
101689
101682
101676
101670
101665
101659
101654
101650
101645
101641
101637
101633
101629
101626
101622
101619
101616
101613
101611
101608
101606
101603
101601
101599
101597
101595
101593
101592
101590
101588
101587
101586
101584
101583
101582
101581
101580
101579
101578
101577
101576
101575
101574
101573
101573
101572
101571
101571
101570
101570
101569
101569
101568
101568
101567
101567
101566
101566
101566
101565
101565
101565
101564
101564
101564
101564
101563
101563
101563
101563
101563
101562
101562
101562
101562
101562
101562
101562
101561
101561
101561
101561
101561
101561
101561
101561
101561
101561
101560
101560
101560
101560
101560
101560
101560
101560
101560
101560
101560
101560
101560
101560
101560
101560
101560
101560
101560
101560
101560
101559
101559
101559
101559
101559
101559
101559
101559
101559
101559
101559
101559
101559
101559
101559
101559
101559
101559
101559
101559
101559
101559
101559
101559
101559
101559
101559
101559
101559
101559
101559
101559
101559
101559
101559
101559
101559
101559
101559
101559
101559
101559
101559
101559
101559
101559
101559
101559
101559
101559
101559
101559
101559
101559
101559
101559
101559
101559
101559
101559
101559
101559
101559
101559
101559
101559
101559
101559
101559
101559
101559
101559
101559
101559
101559
101559
101559
101559
101559
101559
101559
101559
101559
101559
101559
101559
101559
101559
101559
101559
101559
101559
101559
101559
101559
101559
101559
101559
101559
101559
101559
101559
102015
102014
102011
102007
102001
101995
101987
101978
101969
101958
101946
101934
101921
101907
101893
101878
101863
101847
101832
101816
101800
101784
101768
101752
101737
101722
101707
101692
101678
101664
101651
101638
101626
101614
101603
101592
101582
101572
101562
101553
101545
101536
101529
101521
101514
101508
101501
101495
101490
101484
101479
101474
101469
101465
101461
101457
101453
101450
101446
101443
101440
101437
101434
101432
101429
101427
101424
101422
101420
101418
101417
101415
101413
101412
101410
101409
101407
101406
101405
101404
101403
101402
101401
101400
101399
101398
101397
101396
101396
101395
101394
101394
101393
101392
101392
101391
101391
101390
101390
101390
101389
101389
101388
101388
101388
101388
101387
101387
101387
101386
101386
101386
101386
101386
101385
101385
101385
101385
101385
101385
101384
101384
101384
101384
101384
101384
101384
101384
101383
101383
101383
101383
101383
101383
101383
101383
101383
101383
101383
101383
101383
101383
101383
101382
101382
101382
101382
101382
101382
101382
101382
101382
101382
101382
101382
101382
101382
101382
101382
101382
101382
101382
101382
101382
101382
101382
101382
101382
101382
101382
101382
101382
101382
101382
101382
101382
101382
101382
101382
101382
101382
101382
101382
101382
101382
101382
101382
101382
101382
101382
101382
101382
101382
101382
101382
101382
101382
101382
101382
101382
101382
101382
101382
101382
101382
101382
101382
101382
101382
101382
101382
101382
101382
101382
101382
101382
101382
101382
101382
101382
101382
101382
101382
101382
101382
101382
101382
101382
101382
101382
101382
101382
101382
101382
101382
101382
101382
101382
101382
101382
101382
101382
101382
101382
101382
101382
101382
101382
101382
101382
101382
101382
101382
101382
101382
101382
101848
101846
101843
101838
101831
101823
101814
101803
101792
101779
101765
101750
101735
101720
101704
101688
101672
101656
101640
101623
101606
101590
101573
101557
101541
101525
101510
101495
101480
101466
101453
101440
101427
101415
101404
101393
101383
101373
101363
101354
101346
101338
101330
101323
101316
101309
101303
101297
101292
101287
101282
101277
101272
101268
101264
101260
101256
101253
101250
101247
101244
101241
101238
101236
101233
101231
101229
101227
101225
101223
101221
101220
101218
101216
101215
101214
101212
101211
101210
101209
101208
101207
101206
101205
101204
101203
101202
101202
101201
101200
101200
101199
101199
101198
101197
101197
101197
101196
101196
101195
101195
101194
101194
101194
101194
101193
101193
101193
101192
101192
101192
101192
101192
101191
101191
101191
101191
101191
101190
101190
101190
101190
101190
101190
101190
101190
101189
101189
101189
101189
101189
101189
101189
101189
101189
101189
101189
101189
101189
101189
101188
101188
101188
101188
101188
101188
101188
101188
101188
101188
101188
101188
101188
101188
101188
101188
101188
101188
101188
101188
101188
101188
101188
101188
101188
101188
101188
101188
101188
101188
101188
101188
101188
101188
101188
101188
101188
101188
101188
101188
101188
101188
101188
101188
101188
101188
101188
101188
101188
101188
101188
101188
101188
101188
101188
101188
101188
101188
101188
101188
101188
101188
101188
101188
101188
101188
101188
101188
101188
101188
101188
101188
101188
101188
101188
101188
101188
101188
101188
101188
101188
101188
101188
101188
101188
101188
101188
101188
101188
101188
101188
101188
101188
101188
101188
101188
101188
101188
101188
101188
101188
101188
101188
101188
101188
101188
101188
101188
101188
101188
101188
101188
101188
101188
101188
101188
101682
101680
101676
101670
101663
101653
101642
101629
101615
101599
101582
101565
101546
101527
101508
101489
101469
101450
101431
101414
101396
101379
101362
101345
101328
101312
101296
101280
101266
101251
101237
101224
101212
101199
101188
101177
101167
101157
101147
101139
101130
101122
101115
101108
101101
101094
101088
101083
101077
101072
101067
101063
101058
101054
101050
101047
101043
101040
101037
101034
101031
101028
101025
101023
101021
101019
101016
101015
101013
101011
101009
101008
101006
101005
101003
101002
101001
100999
100998
100997
100996
100995
100994
100994
100993
100992
100991
100990
100990
100989
100989
100988
100987
100987
100986
100986
100985
100985
100985
100984
100984
100984
100983
100983
100983
100982
100982
100982
100982
100981
100981
100981
100981
100981
100980
100980
100980
100980
100980
100980
100979
100979
100979
100979
100979
100979
100979
100979
100979
100978
100978
100978
100978
100978
100978
100978
100978
100978
100978
100978
100978
100978
100978
100978
100978
100978
100978
100978
100977
100977
100977
100977
100977
100977
100977
100977
100977
100977
100977
100977
100977
100977
100977
100977
100977
100977
100977
100977
100977
100977
100977
100977
100977
100977
100977
100977
100977
100977
100977
100977
100977
100977
100977
100977
100977
100977
100977
100977
100977
100977
100977
100977
100977
100977
100977
100977
100977
100977
100977
100977
100977
100977
100977
100977
100977
100977
100977
100977
100977
100977
100977
100977
100977
100977
100977
100977
100977
100977
100977
100977
100977
100977
100977
100977
100977
100977
100977
100977
100977
100977
100977
100977
100977
100977
100977
100977
100977
100977
100977
100977
100977
100977
100977
100977
100977
100977
100977
100977
100977
100977
100977
100977
100977
100977
100977
100977
101520
101517
101513
101506
101496
101485
101472
101456
101439
101421
101401
101380
101357
101334
101311
101287
101263
101240
101216
101194
101172
101152
101133
101115
101098
101081
101065
101049
101034
101019
101005
100991
100979
100966
100955
100944
100933
100924
100914
100906
100897
100890
100882
100875
100869
100862
100857
100851
100846
100841
100836
100832
100828
100824
100820
100816
100813
100810
100807
100804
100801
100799
100796
100794
100792
100790
100788
100786
100784
100782
100781
100779
100778
100776
100775
100774
100772
100771
100770
100769
100768
100767
100767
100766
100765
100764
100763
100763
100762
100762
100761
100760
100760
100759
100759
100758
100758
100758
100757
100757
100757
100756
100756
100756
100755
100755
100755
100755
100754
100754
100754
100754
100753
100753
100753
100753
100753
100753
100753
100752
100752
100752
100752
100752
100752
100752
100752
100752
100751
100751
100751
100751
100751
100751
100751
100751
100751
100751
100751
100751
100751
100751
100751
100751
100751
100751
100750
100750
100750
100750
100750
100750
100750
100750
100750
100750
100750
100750
100750
100750
100750
100750
100750
100750
100750
100750
100750
100750
100750
100750
100750
100750
100750
100750
100750
100750
100750
100750
100750
100750
100750
100750
100750
100750
100750
100750
100750
100750
100750
100750
100750
100750
100750
100750
100750
100750
100750
100750
100750
100750
100750
100750
100750
100750
100750
100750
100750
100750
100750
100750
100750
100750
100750
100750
100750
100750
100750
100750
100750
100750
100750
100750
100750
100750
100750
100750
100750
100750
100750
100750
100750
100750
100750
100750
100750
100750
100750
100750
100750
100750
100750
100750
100750
100750
100750
100750
100750
100750
100750
100750
100750
100750
100750
100750
100750
100750
101361
101359
101353
101345
101334
101321
101305
101287
101267
101245
101221
101196
101170
101142
101114
101085
101056
101028
100999
100972
100945
100919
100895
100872
100852
100834
100817
100800
100785
100770
100755
100742
100729
100716
100705
100694
100683
100674
100664
100656
100648
100640
100633
100626
100620
100614
100608
100603
100598
100593
100589
100584
100580
100577
100573
100570
100566
100563
100561
100558
100555
100553
100550
100548
100546
100544
100542
100541
100539
100537
100536
100534
100533
100532
100530
100529
100528
100527
100526
100525
100524
100523
100522
100522
100521
100520
100519
100519
100518
100518
100517
100517
100516
100516
100515
100515
100514
100514
100514
100513
100513
100513
100512
100512
100512
100511
100511
100511
100511
100511
100510
100510
100510
100510
100510
100509
100509
100509
100509
100509
100509
100509
100509
100509
100508
100508
100508
100508
100508
100508
100508
100508
100508
100508
100508
100508
100508
100508
100507
100507
100507
100507
100507
100507
100507
100507
100507
100507
100507
100507
100507
100507
100507
100507
100507
100507
100507
100507
100507
100507
100507
100507
100507
100507
100507
100507
100507
100507
100507
100507
100507
100507
100507
100507
100507
100507
100507
100507
100507
100507
100507
100507
100507
100507
100507
100507
100507
100507
100507
100507
100507
100507
100507
100507
100507
100507
100507
100507
100507
100507
100507
100507
100507
100507
100507
100507
100507
100507
100507
100507
100507
100507
100507
100507
100507
100507
100507
100507
100507
100507
100507
100507
100507
100507
100507
100507
100507
100507
100507
100507
100507
100507
100507
100507
100507
100507
100507
100507
100507
100507
100507
100507
100507
100507
100507
100507
100507
100507
100507
100507
100507
100507
100507
100507
100507
100507
101207
101204
101198
101188
101176
101160
101142
101121
101097
101072
101044
101014
100983
100951
100918
100884
100849
100815
100781
100747
100714
100683
100653
100625
100598
100575
100553
100535
100519
100504
100489
100475
100462
100449
100438
100427
100417
100407
100398
100390
100382
100374
100367
100361
100355
100349
100343
100338
100333
100329
100325
100321
100317
100313
100310
100307
100304
100301
100298
100296
100293
100291
100289
100287
100285
100283
100281
100279
100278
100276
100275
100273
100272
100271
100270
100269
100267
100266
100266
100265
100264
100263
100262
100261
100261
100260
100259
100259
100258
100258
100257
100257
100256
100256
100255
100255
100255
100254
100254
100254
100253
100253
100253
100252
100252
100252
100252
100251
100251
100251
100251
100251
100251
100250
100250
100250
100250
100250
100250
100250
100249
100249
100249
100249
100249
100249
100249
100249
100249
100249
100249
100249
100248
100248
100248
100248
100248
100248
100248
100248
100248
100248
100248
100248
100248
100248
100248
100248
100248
100248
100248
100248
100248
100248
100248
100248
100248
100248
100248
100248
100248
100248
100248
100248
100248
100247
100247
100247
100247
100247
100247
100247
100247
100247
100247
100247
100247
100247
100247
100247
100247
100247
100247
100247
100247
100247
100247
100247
100247
100247
100247
100247
100247
100247
100247
100247
100247
100247
100247
100247
100247
100247
100247
100247
100247
100247
100247
100247
100247
100247
100247
100247
100247
100247
100247
100247
100247
100247
100247
100247
100247
100247
100247
100247
100247
100247
100247
100247
100247
100247
100247
100247
100247
100247
100247
100247
100247
100247
100247
100247
100247
100247
100247
100247
100247
100247
100247
100247
100247
100247
100247
100247
100247
100247
100247
100247
101057
101053
101046
101035
101021
101003
100982
100957
100930
100901
100869
100834
100798
100761
100722
100682
100642
100601
100561
100521
100482
100444
100407
100373
100340
100310
100283
100259
100238
100221
100206
100191
100178
100166
100154
100143
100133
100124
100115
100107
100099
100092
100085
100079
100073
100067
100062
100057
100053
100049
100044
100041
100037
100034
100031
100028
100025
100022
100019
100017
100015
100013
100011
100009
100007
100005