/*--------------------------------*- C++ -*----------------------------------*\
| =========                 |                                                 |
| \\      /  F ield         | OpenFOAM: The Open Source CFD Toolbox           |
|  \\    /   O peration     | Version:  v2012                                 |
|   \\  /    A nd           | Website:  www.openfoam.com                      |
|    \\/     M anipulation  |                                                 |
\*---------------------------------------------------------------------------*/
FoamFile
{
    version     2.0;
    format      ascii;
    class       volScalarField;
    location    "400";
    object      aE;
}
// * * * * * * * * * * * * * * * * * * * * * * * * * * * * * * * * * * * * * //

dimensions      [0 0 0 0 0 0 0];


internalField   nonuniform List<scalar> 
65536
(
5.43983
5.42066
5.43219
5.44509
5.42846
5.4334
5.46263
5.46624
5.45418
5.45811
5.44524
5.45647
5.47455
5.49797
5.51839
5.53636
5.55686
5.58418
5.61171
5.63713
5.66426
5.69247
5.71652
5.73424
5.74869
5.7645
5.78285
5.79822
5.80958
5.82183
5.83524
5.84706
5.85453
5.85655
5.85512
5.85429
5.85537
5.8537
5.8459
5.83085
5.81322
5.80287
5.79291
5.7716
5.74789
5.73193
5.71582
5.69269
5.66596
5.63656
5.59396
5.53576
5.48721
5.48257
5.43546
5.3846
5.41814
5.45376
5.45608
5.47191
5.40457
5.26025
5.2903
5.42824
5.47543
5.44184
5.43508
5.30468
5.00909
5.32833
5.76625
5.77041
5.09826
4.63389
5.26288
5.64359
5.63139
5.38936
5.07467
5.13298
5.3792
5.55345
5.54222
5.49401
5.23468
4.99402
5.30645
5.53833
5.57107
4.80711
4.61552
5.2643
5.54605
5.48947
4.88172
4.94842
5.09275
5.14884
4.88871
4.78657
5.17631
5.46685
5.3649
5.1384
4.72126
4.83305
5.05469
5.15167
5.09997
4.99684
4.93811
5.06695
5.05557
5.06544
5.16838
5.14052
5.05629
5.16337
5.32181
5.26544
4.98613
4.6684
4.70748
4.54038
4.87714
5.03945
5.27525
5.42627
5.51236
5.48408
5.35181
5.10379
4.79549
4.47056
4.16272
3.95817
3.94215
4.26153
4.56584
4.6229
4.59048
4.8226
4.84994
4.7923
4.90598
4.77936
4.96163
4.87626
4.93193
4.84722
4.73905
4.87348
4.72566
4.97112
4.91282
4.81087
4.77756
4.90139
4.8932
4.91999
4.96963
4.89555
4.85414
4.92499
4.84141
4.99083
4.77143
4.89405
4.90911
4.91627
4.93884
4.86382
4.81121
4.84331
4.9625
5.00176
4.9787
4.94556
4.95177
4.94614
4.88368
4.92887
4.9251
4.7201
4.84696
4.88997
4.9464
4.95393
4.93427
4.77489
4.88889
4.91977
4.98144
4.92391
4.8922
5.00587
4.93725
4.86142
4.94885
4.95553
4.91386
4.96828
4.88601
4.94201
4.9999
4.90494
4.93983
4.6923
4.99862
4.78431
4.93925
4.97039
4.93267
4.93778
5.02947
4.96114
4.96157
4.99341
4.91585
4.9293
4.92924
4.93479
4.75588
4.95304
4.92671
4.95984
4.85664
4.78687
4.9305
4.93535
4.90861
4.71951
4.95231
4.86071
4.94775
4.97554
4.87295
4.87014
4.96043
4.93234
4.83541
4.974
4.90421
5.01664
4.93252
4.95777
4.90314
4.91262
4.88108
4.956
4.89026
4.86498
4.92998
4.90998
4.92135
4.88635
4.9982
4.93031
4.9247
4.88692
4.89665
4.95484
4.99344
4.90117
4.91787
4.91288
4.90715
4.98694
4.95603
4.83288
4.90249
4.89694
4.99715
4.83249
4.90337
4.87079
4.98923
4.97098
4.99472
4.96203
4.95976
4.89445
4.94443
4.77694
4.88977
4.91518
4.84709
4.96097
4.9428
4.923
4.96524
4.94887
4.86212
4.97666
4.87086
4.94535
4.95971
4.89414
4.90429
4.93794
4.93834
4.81258
4.91891
4.98829
4.89999
4.82777
4.9618
4.93489
4.98242
4.90979
4.95609
4.81828
4.96854
4.93304
5.02065
4.93756
4.97181
4.922
4.88245
4.9397
4.93668
5.02397
5.01316
4.9238
4.97828
4.91686
5.02775
4.86859
4.96931
4.9091
4.88025
4.90145
4.98169
4.90637
4.93315
4.94222
4.90985
4.93582
4.98151
4.91302
4.92828
4.857
4.83311
4.87818
4.98715
4.92663
4.94154
4.93349
4.97142
4.87928
4.90669
4.97355
5.02161
4.90434
4.91108
4.92247
4.94324
4.92737
4.91011
4.92787
4.94648
4.94406
4.90654
4.89152
4.93103
4.93572
4.90773
4.93352
4.91543
4.86943
4.96957
4.86649
5.01489
4.86621
4.89566
4.93042
4.96645
4.92887
4.76376
4.89041
4.93081
4.87343
4.89198
4.888
4.93098
4.90086
4.86734
4.90067
4.89755
4.83632
4.89246
4.84467
4.88526
4.83172
4.95115
4.90339
4.92011
4.92622
4.99034
4.98966
4.91693
4.93005
4.823
4.96716
4.92391
4.94325
4.97004
4.9503
4.91705
5.00371
4.8693
4.92637
4.89533
4.94538
4.9391
4.98021
4.9531
4.74244
4.86048
4.91564
4.89128
4.93232
4.99316
4.81998
4.96747
4.86419
4.9424
5.0123
4.93946
4.89478
4.95456
4.96975
4.95122
4.9563
4.84921
4.95937
4.97372
4.84137
4.98837
4.86585
4.89996
4.88839
4.89366
4.89724
4.94819
4.89062
4.78336
4.94014
4.96992
4.92246
4.88766
4.99002
4.75522
4.86487
4.75113
4.962
4.93495
4.92409
4.90401
4.90248
5.02305
4.95856
4.90089
5.00858
4.9762
4.96298
4.89511
4.94253
4.89659
4.86995
4.71665
4.83286
4.83785
4.9543
4.93378
4.77238
4.8612
4.87086
4.93848
4.89601
4.88891
4.95069
4.85603
4.80049
4.96641
4.86763
4.72393
4.86687
4.89392
4.85263
4.92818
4.8282
4.92916
4.952
4.95344
4.94431
4.99402
4.87983
4.83804
4.8101
4.9412
4.83198
4.92963
4.97573
4.92185
4.96518
4.88917
4.75799
4.91795
4.90276
4.92894
4.83485
0.185472
0.124198
0.171676
0.213417
0.116629
0.0986177
0.173405
0.151498
0.0812706
0.0833283
0.00764246
0.0318553
0.0461258
0.059897
0.0484008
0.0426124
0.0920535
0.195258
0.253649
0.277921
0.296829
0.333448
0.37636
0.393154
0.402556
0.427329
0.480257
0.508046
0.507401
0.529768
0.561124
0.580777
0.566196
0.530242
0.550375
0.591333
0.584167
0.553002
0.509431
0.492839
0.532593
0.537774
0.465875
0.405311
0.384289
0.349987
0.298381
0.249284
0.213746
0.177306
0.108375
0.0560011
0.00803767
0.132298
0.125296
0.00587168
0.0955556
0.263051
0.349417
0.527436
0.577567
0.304277
0.308693
0.644692
0.852065
0.874227
1.00019
0.987414
0.323848
0.672505
1.54431
1.91988
1.13988
0.126053
1.21047
1.91682
2.04609
1.95591
1.42876
1.28689
1.57812
2.12167
2.41046
2.35959
1.97862
1.57247
1.87219
1.51202
2.1001
1.88169
1.46825
1.47126
1.37561
2.51185
2.00962
1.92961
1.42423
1.82936
2.39804
2.01349
1.71134
1.76271
1.89322
2.22773
1.65379
1.67976
1.95695
2.18981
1.85865
1.73816
1.45799
2.12555
2.27416
2.30151
2.31427
1.88871
1.50046
2.07908
2.6085
2.08273
0.884632
0.18892
0.260527
0.000683313
0.614736
0.781379
1.23514
1.3291
1.77016
1.77177
1.95441
2.13719
2.23434
2.22784
2.23588
2.16348
2.11622
2.30528
2.30789
1.93109
1.60932
2.15974
1.98567
1.72695
2.04351
1.65676
2.20245
1.93169
2.10357
1.85351
1.55281
2.02742
1.59018
2.25523
2.09084
1.7828
1.74034
2.20789
1.96086
2.01377
2.15058
1.90776
1.72801
2.04857
1.80874
2.35554
1.75027
2.02183
1.95641
2.03798
2.10887
1.8841
1.78443
1.79693
2.14346
2.25494
2.13975
2.01156
1.98632
1.95651
1.83727
2.06616
2.0289
1.46619
1.87922
1.98498
2.09997
2.18298
2.06645
1.50558
1.93112
1.97879
2.23643
1.86973
1.83323
2.26923
1.97905
1.77682
1.9877
2.05948
1.85231
2.13825
1.87875
2.12053
2.31213
2.06588
2.23587
1.47678
2.44912
1.62121
2.08312
2.07143
1.95796
1.85557
2.29377
1.98789
2.0006
2.17741
1.93311
1.95573
1.88319
2.07908
1.54292
2.15432
2.14529
2.16763
1.85359
1.70149
2.05659
2.11275
1.92889
1.49376
2.26259
1.85456
2.18375
2.23475
1.89876
1.94376
2.22125
2.04786
1.74956
2.29385
1.92109
2.30287
1.95821
2.03785
1.76356
1.87678
1.74358
2.06337
1.83492
1.79528
1.94591
1.96352
2.01897
1.88437
2.31281
2.08698
2.01073
2.00066
1.85343
2.28859
2.23686
1.85027
1.8879
1.83189
1.79287
2.1614
2.06608
1.79262
1.9801
2.01702
2.2626
1.73223
1.99214
1.77533
2.23735
2.13641
2.25377
2.06197
2.10212
1.85245
2.15885
1.68477
2.01016
2.03398
1.76401
2.04682
1.98305
1.8567
2.05624
2.03518
1.78442
2.2298
1.77001
2.0398
2.03354
1.79754
1.87217
2.11437
2.12209
1.81556
2.00871
2.22509
1.92427
1.71174
2.1319
1.94314
2.07946
1.93265
2.11697
1.90694
2.26144
2.00224
2.34016
2.07997
2.12275
2.01109
1.9227
2.07448
2.03364
2.39245
2.27043
1.99844
2.12975
1.90957
2.36698
1.83696
2.146
1.96286
1.85486
1.87298
2.14573
1.93728
1.9951
1.99247
1.93018
1.96014
2.20206
1.98081
2.01202
1.89557
1.92958
1.9646
2.23888
2.03552
2.01229
2.02939
2.14898
1.83712
1.86619
2.14133
2.31641
1.87192
2.00904
1.91616
2.02025
1.91073
1.94613
2.03634
1.99614
2.14028
1.8888
1.89323
1.99257
1.92815
1.88977
2.03682
1.93266
1.80932
2.18029
1.87849
2.39143
1.79298
1.97799
2.14772
2.23217
2.03554
1.56752
1.98368
1.99448
1.81995
1.85427
1.9358
2.02481
1.86913
1.8614
1.93763
2.01836
1.74845
2.03421
1.82244
1.98899
1.8381
2.13816
1.97757
2.01576
1.97821
2.24065
2.16483
1.88048
1.99853
1.66848
2.14435
1.89761
1.98332
2.09924
2.05025
1.99197
2.26711
1.8213
2.03483
2.10815
2.06389
2.08204
2.23146
2.18273
1.56465
1.86413
1.94054
1.87344
1.99502
2.30359
1.61811
2.20741
1.85633
2.02403
2.23601
1.99503
1.82678
2.02284
2.11537
2.05475
2.09714
1.73782
2.12773
2.2113
1.75364
2.33112
1.93649
2.0445
1.97673
1.94691
1.96816
2.09101
1.92598
1.57406
2.11884
2.22951
1.96355
1.9102
2.33627
1.62662
1.9337
1.54049
2.16388
2.01801
2.02572
1.89452
1.86521
2.26236
2.0632
1.8338
2.23057
2.16917
2.03696
1.81607
2.04097
1.86275
1.9016
1.47061
1.85528
1.73566
2.18799
2.09497
1.54562
1.89103
1.87005
2.13323
1.90976
1.93686
2.17412
1.91125
1.82322
2.44926
2.01387
1.54932
1.9382
1.99568
1.86096
2.10629
1.68651
2.03778
2.09705
2.09782
2.19824
2.38065
1.96401
1.86968
1.7671
2.18926
1.74869
2.06823
2.22337
2.08165
2.18855
1.95798
1.52379
2.02016
1.89888
2.01561
1.63663
1.91063
1.93779
1.92006
1.89285
1.93324
1.94264
1.89887
1.90079
1.93524
1.93675
1.96572
1.96112
1.95006
1.9324
1.91577
1.90735
1.90855
1.90976
1.8897
1.86292
1.83419
1.80655
1.80203
1.80128
1.79279
1.77429
1.76848
1.76037
1.74221
1.72969
1.72429
1.71906
1.69398
1.66349
1.66881
1.6879
1.67437
1.66488
1.66561
1.67307
1.68672
1.67394
1.67565
1.7068
1.71366
1.69706
1.71079
1.74021
1.74692
1.75466
1.80167
1.87217
1.91848
1.89288
1.90004
1.88717
1.81394
1.79328
1.78106
1.68309
1.74279
1.89737
1.79651
1.56464
1.48304
1.43603
1.29727
1.51987
1.95596
1.49773
0.0468857
0.460349
1.74401
1.9561
0.797314
0.00985611
0.459102
0.83358
1.07866
0.806333
0.207186
0.377121
0.387273
0.142519
0.0759541
0.757622
0.198942
1.81203
1.37145
0.238834
1.1191
1.07312
2.34114
0.779514
0.811137
0.468384
1.60856
2.10961
0.762504
0.490862
0.971111
1.37577
1.31206
0.983048
1.57467
1.81811
1.49414
1.03237
1.39483
0.932564
1.67521
1.08792
1.20022
0.911996
0.707541
1.18066
1.94918
1.45302
0.480363
0.399544
1.24003
2.02301
2.17073
1.92178
2.96348
2.55417
2.08228
1.73942
2.55566
0.662615
2.12403
1.70123
2.02917
1.84587
1.89337
1.79026
1.69952
1.29423
1.17631
1.65481
2.07535
1.05321
1.34442
1.65617
1.31033
1.80561
1.21166
1.43593
1.27216
1.67476
2.11095
1.33695
1.90556
1.07984
1.18313
1.70813
1.81674
0.937498
1.5481
1.45202
1.23249
1.52247
1.85358
1.33825
1.66563
0.999855
1.79251
1.50888
1.58956
1.2651
1.15964
1.49707
1.74467
1.73368
1.18454
0.981087
1.10982
1.25167
1.44125
1.47648
1.53844
1.24041
1.4007
2.25983
1.60228
1.33479
1.22936
1.08972
1.37524
2.31429
1.46319
1.32956
0.819832
1.64834
1.5656
0.894062
1.40917
1.49341
1.51642
1.1503
1.62504
1.10264
1.50818
1.10931
1.23283
1.41398
1.1845
2.27174
0.940011
2.16471
1.43351
1.43888
1.41977
1.78689
0.846128
1.5121
1.4725
1.17938
1.42869
1.40183
1.71629
1.32354
2.10412
1.18275
1.05529
1.23116
1.67243
1.83778
1.35488
1.11484
1.69809
2.19884
1.09857
1.65622
1.16107
1.20362
1.61643
1.3868
1.09495
1.44598
1.77068
0.829467
1.56118
1.05991
1.53262
1.37873
1.79374
1.43806
1.70949
1.17701
1.53743
1.55487
1.4577
1.22817
1.29463
1.50768
0.853144
1.14646
1.41032
1.10378
1.74
0.742239
0.994841
1.68758
1.57457
1.71044
1.68233
1.11872
1.42793
1.72541
1.52663
1.1835
1.14059
1.83512
1.42704
1.86165
1.04372
1.27614
1.0748
1.42234
1.21797
1.63737
1.23828
1.8581
1.33571
1.42425
1.73078
1.46105
1.29595
1.55293
1.19118
1.29989
1.71611
1.10425
1.80184
1.29215
1.34282
1.70662
1.67288
1.10727
1.30848
1.68416
1.54627
1.07604
1.48653
1.78178
1.04707
1.35677
1.32305
1.30861
1.36227
1.43477
1.03306
1.46757
0.820405
1.28964
1.49675
1.46928
1.46539
1.32222
1.46104
0.756525
1.07654
1.31038
1.1567
1.52675
0.832062
1.63764
1.26719
1.47514
1.60567
1.55996
1.17961
1.34686
1.3766
1.48819
1.44814
1.50176
1.06197
1.43363
1.49903
1.64489
1.57069
1.57376
1.18577
1.28883
1.40613
1.19831
1.14959
1.67103
1.66161
1.18111
0.851999
1.58261
1.16486
1.58972
1.32366
1.6794
1.49815
1.2724
1.71395
1.13255
1.66177
1.32746
1.2779
1.58076
1.49711
1.15457
1.60033
1.63743
1.20412
1.59716
0.874052
1.8435
1.41788
1.12828
1.13668
1.60747
2.17984
1.38109
1.4927
1.65466
1.60588
1.24425
1.38965
1.68687
1.61913
1.5652
1.34638
1.93161
1.3343
1.71234
1.54157
1.74201
1.43994
1.48533
1.33097
1.42296
0.866174
1.07938
1.56574
1.36221
1.92781
1.23432
1.70443
1.54399
1.20188
1.35732
1.35646
1.07356
1.73513
1.32632
1.05832
1.509
1.37518
1.1237
1.20563
2.05424
1.65188
1.5408
1.53471
1.50417
0.988551
2.14426
1.20614
1.56763
1.40886
1.08368
1.42463
1.71929
1.47888
1.22291
1.26395
1.2199
1.78478
1.19844
1.08094
1.78932
0.922839
1.50896
1.25701
1.34705
1.48085
1.42496
1.34836
1.63393
2.15311
1.19038
0.947422
1.57344
1.55079
0.902275
1.99
1.62012
2.16828
1.2663
1.43233
1.21955
1.51668
1.62498
1.0237
1.29381
1.75268
1.16109
1.0772
1.42141
1.68782
1.23517
1.62317
1.65212
2.31232
1.67492
1.97804
1.15456
1.25458
2.13878
1.47594
1.56728
1.07246
1.5892
1.55707
1.19096
1.65443
1.74349
0.790892
1.58217
2.14699
1.61693
1.45456
1.49042
1.16469
1.93152
1.30033
1.15891
1.20399
0.97491
0.847444
1.5392
1.57944
1.89022
1.17844
1.82002
1.43216
1.25589
1.42797
1.26993
1.51913
2.14968
1.34727
1.48532
1.30057
2.08876
1.25919
1.2738
1.26518
1.23528
1.26877
1.28841
1.24697
1.23459
1.26674
1.24231
1.27406
1.27058
1.20051
1.24395
1.21824
1.16056
1.14388
1.2167
1.2657
1.20283
1.14959
1.22763
1.22487
1.16691
1.16419
1.22716
1.2626
1.29002
1.30834
1.30963
1.29929
1.3014
1.3742
1.4452
1.40876
1.34695
1.39465
1.42566
1.43315
1.45758
1.45903
1.47202
1.40162
1.33206
1.39427
1.49034
1.42748
1.35102
1.44537
1.49081
1.34691
1.23567
1.21747
1.24255
1.24551
1.23136
1.24203
1.28338
1.13379
1.03517
1.12534
1.13162
1.05215
1.07306
1.00984
0.863414
0.984457
1.16296
1.00047
0.686264
0.991346
0.83206
0.667666
0.677149
1.1526
1.46001
1.58079
1.41064
0.690356
0.632756
1.19045
1.67704
1.81301
1.75956
1.00113
1.06007
1.39301
0.236067
1.11177
0.494581
0.735578
0.131821
0.774554
1.81145
0.499449
0.547369
0.44712
0.597819
2.3707
1.18089
0.163038
0.932943
1.44739
1.04153
0.104294
0.363891
1.03021
0.976073
0.555107
1.42542
0.63722
1.516
1.30619
1.54111
1.62976
1.10589
0.156531
0.647318
1.55265
2.02694
1.67067
1.05671
2.4897
0.925622
1.06179
1.10597
2.78289
0.0516777
2.27517
0.737123
2.29249
1.65535
1.73559
1.78427
1.76004
1.55653
1.50749
1.89947
1.87006
1.10881
0.297868
1.5507
1.11004
0.746311
1.20897
0.705466
1.33239
1.15925
1.14637
0.790382
0.195089
1.26033
0.459666
1.44404
1.48568
0.813354
0.48942
1.74573
0.931382
1.03586
1.32318
0.995539
0.534555
1.16881
0.899634
1.79296
0.830212
0.923755
0.82223
1.23592
1.50454
1.05613
0.486316
0.627399
1.40519
1.56158
1.4315
1.29453
0.818683
0.979644
1.04143
1.13829
1.27964
0.0431922
0.872129
1.31243
1.45229
1.46952
1.26289
0.0130019
1.10348
1.27542
1.89759
0.799303
0.907181
1.63088
1.08339
1.33387
0.740182
1.38416
0.719624
1.4091
1.13306
1.81637
1.23049
1.24689
1.7089
0.389297
1.81437
0.048449
0.986802
1.0378
1.13688
0.541996
1.85006
0.888668
1.10837
1.36959
1.15381
1.16947
0.764042
1.22909
0.407722
1.73087
1.63676
1.29662
0.865887
0.647027
1.22742
1.53515
0.84294
0.23384
1.51895
0.953289
1.38343
1.23189
0.797524
1.26925
1.48925
1.11838
0.725129
1.98636
1.03502
1.49234
0.92338
0.980321
0.593041
1.13568
0.692286
1.33567
0.912116
0.87521
0.930229
1.34111
1.11592
1.04238
1.91642
1.53112
1.0401
1.67768
0.841541
1.86579
1.91053
0.812371
0.836088
0.562572
0.72959
1.3003
0.980544
0.821184
0.966897
1.60931
1.33452
0.652486
1.18043
0.571803
1.63421
1.25153
1.471
1.01411
1.48562
0.963221
1.25134
0.615018
1.39659
1.05108
0.699188
0.896713
1.28169
0.972545
1.33323
1.16347
0.534036
1.07545
0.503195
1.1554
1.17198
0.845204
0.688707
1.59944
1.2964
0.966031
0.932781
1.50936
0.979665
0.542674
1.47161
1.12579
1.02625
1.45008
1.10829
1.18725
1.61164
0.998405
2.03592
1.29451
0.982072
1.14989
1.24303
1.34769
1.04631
2.04773
1.61556
1.34307
1.70161
1.07516
1.84633
0.867242
1.37191
1.09506
0.98543
0.953172
1.22652
1.16272
0.965755
0.848038
1.03454
1.08509
1.64018
1.06443
1.05254
0.89138
0.89418
0.996912
1.45405
1.27848
1.02907
1.37528
1.1843
0.448552
0.659882
1.32869
1.82154
0.87474
1.28273
0.734696
1.2328
0.707412
0.894794
1.42795
0.656244
1.44638
0.81568
1.52743
1.31125
0.83019
1.04599
1.64871
0.885828
1.0206
1.356
0.795874
1.77732
0.740452
1.28971
1.45466
1.32671
0.795436
0.00763871
1.14498
0.744135
0.656798
0.902125
1.52335
1.0464
0.909453
0.803398
0.923143
1.30441
0.499767
1.29106
0.901619
0.999308
0.724941
1.15317
1.21511
1.22986
1.02364
1.74296
1.40853
0.884
1.23293
0.562748
1.3161
0.597991
0.701751
1.34623
1.04685
1.22391
1.60053
0.675674
1.31857
1.35945
0.932811
1.15785
1.52548
1.50785
0.541445
0.884758
0.932282
0.947711
0.886888
1.68362
0.307398
1.37887
0.951418
1.13413
1.57233
1.12202
0.736303
1.0337
1.37892
1.3518
1.29581
0.590669
1.42775
1.50348
0.75054
1.70333
0.656151
1.22195
1.24426
1.06453
1.07694
1.17847
0.849212
0.176954
1.42832
1.65683
0.735317
0.805671
1.8382
0.709259
1.08324
0.307258
1.32052
1.02547
1.5489
1.12556
0.81912
1.5763
1.23837
0.678566
1.45853
1.55536
1.05728
0.850787
1.5283
1.10008
0.872974
0.184425
1.11617
0.610963
1.51689
1.42048
0.219129
1.1071
0.858269
1.47577
0.852256
0.823022
1.52562
0.978572
0.913735
2.01341
1.0358
0.310536
1.03171
1.21922
1.35475
1.4552
0.116314
1.09562
1.5175
1.47493
1.71676
1.86222
1.01884
1.09122
0.410281
1.42356
0.759072
1.18852
1.35337
1.07466
1.35247
1.05221
0.0872183
1.1101
1.0351
1.23324
0.271667
1.17001
1.16368
1.17825
1.20571
1.1939
1.20032
1.23485
1.28191
1.26584
1.32655
1.32989
1.37655
1.54901
1.44705
1.48398
1.60371
1.68075
1.70519
1.61779
1.68155
1.67411
1.48616
1.57121
1.72122
1.70727
1.54135
1.47693
1.39453
1.30513
1.3115
1.37966
1.39451
1.21145
1.0199
1.08244
1.21242
1.05717
0.939193
0.940115
0.947953
0.96362
0.853522
0.934442
1.14931
1.0613
0.776867
0.795837
0.911093
0.653352
0.427654
0.715332
1.1371
1.29007
1.17738
0.978405
0.651907
0.551672
0.599301
0.816002
1.24531
1.2135
0.70521
0.488344
0.718728
0.978537
1.01314
0.947391
1.10208
0.758271
0.4758
0.657149
0.660401
0.416548
0.707004
0.916525
0.563124
0.523558
0.664952
0.763383
0.622819
0.636534
0.372352
0.316267
1.28948
0.0277717
1.02088
0.691233
1.64703
0.397788
0.535157
0.179608
1.21736
2.01965
0.435223
0.828604
0.363358
2.24789
1.18555
1.37215
0.872386
1.00144
0.812084
1.51347
1.14101
1.01837
1.38855
0.00962383
0.97201
1.34222
0.385132
1.38428
0.324834
0.429326
0.137862
0.0998817
0.654163
1.65362
1.66179
1.06801
1.05857
1.21975
1.39344
0.762753
2.53659
2.45919
0.126196
1.69625
1.90628
1.56239
1.18898
1.97084
1.54404
1.72219
1.67317
1.36032
1.51823
1.40955
0.674561
0.475126
1.42411
2.13618
0.270697
0.855854
1.3804
0.964797
1.58097
0.993589
0.934645
1.06123
1.3435
2.12161
0.821495
1.91314
0.495359
0.473635
1.35124
1.58791
0.0846829
1.24565
1.19866
0.813975
1.12593
1.61592
0.942362
1.22814
0.288844
2.12561
1.17414
1.32311
0.828487
0.353323
1.11176
1.45892
1.53192
0.754766
0.72198
0.700711
0.703106
1.19518
0.961169
0.888835
1.17161
0.96284
2.64698
1.64822
0.855939
0.686499
0.723125
1.00788
2.20942
1.21968
0.831817
0.0596824
1.31086
1.18538
0.419688
1.1014
0.507889
1.32169
0.62169
1.3846
0.629279
0.695672
0.19715
1.53418
1.30076
0.79662
2.76614
0.827665
2.12679
1.17079
1.11063
0.951006
1.74252
0.0709688
1.30583
0.805276
0.999075
0.985447
0.84804
1.22854
1.01203
2.26403
0.350794
0.479083
0.967778
1.39714
1.987
1.01583
0.501723
1.36006
2.35508
0.593573
0.792234
0.572952
0.774536
1.34024
0.590646
0.530732
1.08667
1.81068
0.157105
1.33304
0.835215
1.19126
1.27889
1.59443
0.932471
1.31102
0.617653
1.03538
0.975468
0.822762
0.232071
0.807678
1.16368
0.223937
0.598744
1.1616
0.309876
1.17716
0.327713
0.0381313
1.22993
1.31049
1.48632
1.27877
0.79252
0.982941
1.9106
0.925522
0.129862
0.672965
1.37281
0.916931
1.7723
0.452369
0.945514
0.818637
1.46199
0.494944
1.36286
1.04478
2.02122
0.729684
1.09703
1.21486
1.04461
0.660169
0.865234
0.635949
0.952781
1.49763
0.495169
1.29053
0.848762
0.802092
1.00419
1.36067
0.292069
0.87971
2.21217
1.41117
0.469521
1.11226
1.8116
0.555151
0.729576
0.854911
0.339424
1.10089
1.98692
0.390023
1.25348
0.0576785
1.23049
1.72281
1.30483
1.05769
0.927458
1.31781
0.210432
0.554374
0.912302
0.250901
1.14108
0.388722
1.33914
0.558251
1.03334
1.12938
1.1696
0.919593
0.917716
1.41188
1.33802
1.05084
0.809576
0.187601
1.03063
1.04534
1.02463
1.65213
1.16719
1.01587
1.0342
1.12523
0.72002
0.977137
1.30313
1.30371
0.740313
0.496
1.07599
0.608951
1.04485
0.749017
1.29101
1.27213
0.694859
1.63069
0.743562
1.14823
0.395042
0.740016
1.09824
0.878867
0.292296
1.08047
1.08675
0.778011
1.7633
0.845537
1.59702
0.755245
0.638457
0.822952
1.3819
2.21522
0.707261
1.2386
1.39279
1.10813
0.382034
0.989323
1.07334
1.3924
1.22833
0.553485
1.36363
0.61757
0.740373
1.01933
1.65183
1.26213
0.919401
0.907497
1.02823
0.181336
0.858596
1.41358
0.944336
2.2124
0.947893
1.59674
1.43521
0.80257
1.2327
1.02336
0.658589
1.60029
0.734372
0.873325
1.32678
1.0708
0.541561
0.693762
2.3872
1.37297
1.25094
1.20342
1.33048
0.207992
1.58365
0.868075
1.36386
1.05104
0.327283
0.947701
1.54558
1.09307
0.609042
0.728233
0.924653
1.56551
0.585076
0.676203
1.38133
0.0663575
0.779616
0.722588
0.649832
0.869587
0.864739
0.599012
1.12491
2.17822
0.812787
0.644485
1.58846
1.41427
0.25661
2.53697
1.19507
2.41674
0.875344
1.18267
0.418306
0.818984
1.2829
0.398867
0.870189
1.69702
0.979303
0.769307
1.38521
1.35749
0.529283
0.814132
1.42003
2.48013
1.13529
1.65902
0.566296
0.661664
2.21993
0.97533
1.31798
0.705641
1.36089
1.36967
0.347856
1.25332
1.44134
0.336435
1.41484
1.5574
1.02629
0.968854
0.576946
0.535058
1.48295
1.04491
0.472835
0.812142
0.577146
0.513944
1.51606
1.19005
1.87867
0.706503
1.61632
1.28278
1.0756
1.43657
1.07657
1.14664
1.81531
0.733503
0.681024
0.553873
2.25954
0.765734
0.791255
0.769943
0.684061
0.741442
0.75642
0.640378
0.576982
0.643271
0.52138
0.571878
0.498227
0.216034
0.43958
0.346289
0.154189
0.113264
0.138442
0.29573
0.174024
0.192266
0.474762
0.37775
0.20398
0.259266
0.463503
0.513458
0.59009
0.669158
0.671439
0.607108
0.591031
0.807294
0.991974
0.915445
0.757813
0.88769
0.970662
0.98154
1.01631
1.00147
1.06518
0.974624
0.747103
0.854098
1.11211
1.0356
0.837179
1.05655
1.28754
1.1516
0.737409
0.419855
0.494239
0.67308
0.835144
0.900053
1.02929
1.10099
0.241083
0.203466
0.516641
0.718646
0.715129
0.739202
0.0603126
0.419162
0.0587346
0.341029
0.313942
0.291433
0.557519
0.0013115
0.730906
1.07631
1.05494
0.471676
1.19506
0.356738
1.29694
1.04566
0.568366
0.586411
0.235622
0.855115
1.10731
0.486574
0.318785
1.25845
0.0833029
0.981308
0.276869
1.11255
1.60763
0.172
0.159639
1.17085
0.307898
0.672582
0.200544
0.60036
0.445172
0.67454
1.61967
0.284983
0.673921
1.39151
0.320916
0.404511
1.14229
0.120654
1.37782
1.19475
1.43262
1.59313
1.38215
0.769998
0.789516
1.42496
1.28379
1.32913
2.4078
1.48537
0.694126
2.03412
2.44834
1.36213
1.2823
1.9628
1.14321
2.16697
1.28827
1.59884
1.49205
1.6726
1.35784
1.27065
2.07685
1.95237
0.81709
1.62465
1.14475
0.878685
0.276654
1.11812
1.02053
2.08151
0.848798
0.317906
0.665367
1.70359
0.765815
1.05242
0.727886
1.23873
0.444504
1.15409
1.52665
0.680189
0.650141
1.4994
0.692626
0.468346
0.928582
0.603966
1.6807
1.47309
0.331303
0.176026
0.958901
1.58774
0.551763
1.22491
0.330364
1.41018
1.95688
1.17464
1.16629
0.579701
0.712907
1.10581
0.647425
0.848315
2.33741
0.25589
1.09542
1.30379
1.20836
0.857023
0.956513
0.21064
0.941632
1.84363
0.44261
0.522606
1.17416
0.878616
1.97276
0.697444
1.105
0.189382
1.09294
1.1215
1.5489
2.32261
0.688445
1.21863
2.50356
2.87165
1.53472
0.646451
1.5049
1.03063
0.0588893
2.26893
0.500348
0.819002
2.02027
1.13586
1.31089
1.10647
0.993373
1.66275
1.67177
1.10695
0.753351
0.322487
1.68507
0.440468
1.41393
0.661991
1.66477
0.861652
0.381527
0.943916
0.850193
0.250229
1.09767
1.25751
0.846764
0.223937
1.95948
0.721976
2.15887
0.951208
0.521687
0.615101
0.938214
0.403608
1.10504
0.504091
1.01227
0.30829
0.25698
0.603423
0.615831
2.33914
1.21835
0.544594
1.35355
0.600335
1.95875
2.67098
0.987481
0.426466
0.0427903
0.339247
0.437358
0.617637
1.48216
0.560405
1.41849
0.806353
0.721623
1.21273
0.0558902
1.66311
1.24511
1.76315
0.452688
1.63789
0.292846
0.667518
1.54306
0.898408
0.631372
0.704074
0.582142
1.04566
0.940262
1.13003
0.6725
0.0906399
0.628101
0.0495799
0.894118
0.874586
0.688764
0.167357
1.69023
0.792756
2.28506
0.232951
1.53394
0.630567
1.392
0.97777
0.882299
0.572341
1.40495
0.0544057
1.75857
1.46418
0.747034
2.50998
1.07386
2.19003
0.894365
1.09073
1.78992
0.793268
2.48663
1.99886
1.26193
2.21143
1.12913
2.28271
0.629936
1.36797
1.02925
1.22802
0.739193
0.483296
0.494091
0.179991
0.562963
0.787292
1.10953
1.9804
1.02065
0.876654
1.03954
1.79112
0.747924
2.40845
0.964747
0.659069
0.96427
0.472669
0.853944
0.318087
1.26702
2.55212
0.31526
0.143691
0.192472
0.91181
0.844067
0.762598
1.20726
0.93288
1.36175
1.06094
1.27522
0.979302
0.473794
0.670437
1.35424
0.739276
0.929493
1.0725
0.19348
2.6243
0.434097
1.36101
1.33909
1.05462
1.10956
1.64865
0.825966
0.476151
0.114006
0.56186
1.47451
0.963367
1.04576
0.632446
0.644281
1.09159
0.0231943
0.540556
0.276806
0.687779
0.211015
1.82505
1.01237
1.14646
0.933928
1.88386
1.01506
0.300629
0.852696
1.88196
0.794386
0.11322
0.288044
0.834944
0.529445
0.985377
1.86675
0.180236
0.949622
0.613278
1.15845
0.821926
1.62767
1.40368
1.94442
0.212194
0.336407
0.557987
0.567304
1.82893
0.041699
0.551988
0.0571443
0.792428
1.71147
0.988263
0.0785042
1.21174
1.31096
1.11045
0.865536
0.279411
1.4822
1.15751
0.606466
1.94181
0.0165161
0.680385
0.96696
0.694089
0.632256
0.741963
0.435227
1.60797
1.18503
2.2927
0.0975692
0.270835
1.30135
2.26548
0.643771
1.86886
0.999658
0.762404
1.80187
1.14936
0.524322
1.6879
1.18411
0.165022
2.03694
1.437
0.532344
0.707158
1.43426
1.07562
0.037634
2.00675
0.960322
1.24662
1.40477
1.39744
1.72345
0.577708
0.218363
0.918851
0.150472
0.278468
1.23745
0.602329
0.717631
2.13834
0.297459
0.165208
0.569536
1.14389
1.93179
1.61555
0.90229
0.678702
1.50894
0.91683
1.36176
2.24784
0.56052
0.788768
1.67754
1.5184
0.565926
0.818203
1.82038
0.73992
2.04158
0.663811
1.00332
0.899736
1.0039
1.01227
1.78839
0.81031
0.788809
0.822334
0.886011
0.838345
0.850188
0.947009
1.00525
0.964537
1.07542
1.0574
1.15469
1.36946
1.21114
1.31654
1.46392
1.54248
1.52989
1.4396
1.5517
1.56623
1.45757
1.53949
1.65051
1.64419
1.54354
1.50804
1.45343
1.41744
1.45061
1.48719
1.46767
1.37467
1.30754
1.33223
1.40131
1.33459
1.26789
1.26323
1.27689
1.28995
1.23953
1.23926
1.33812
1.34649
1.25134
1.19114
1.20498
1.17691
1.11962
1.01113
1.11605
1.36432
1.3916
1.25794
1.08158
0.983991
1.04623
1.11272
1.18829
1.10505
0.952646
0.952041
0.9372
1.04001
1.23026
0.901658
0.52054
0.724472
0.906586
0.931336
0.847953
0.804262
0.541488
0.42568
0.0415994
0.280325
0.87159
1.03062
0.718806
0.345146
0.284853
0.415918
0.495701
0.184913
0.585211
0.218566
0.580279
0.20967
1.04521
0.492038
0.393293
0.0908368
0.86737
0.899913
0.69469
1.0047
0.541289
1.0988
0.865722
0.1927
1.4524
0.236308
0.719933
0.803128
0.938294
0.943
0.443401
0.626437
0.588544
1.30845
0.329367
0.639322
0.499006
0.499765
0.831312
1.40293
1.55679
1.51835
1.42414
1.4171
1.12496
1.6998
2.64813
0.0293712
2.0113
0.769991
2.08918
0.914452
2.08822
1.29429
1.93877
1.74321
1.37701
1.12271
1.24637
1.30842
0.263484
1.59826
0.747127
1.26157
0.317127
0.671992
1.3936
0.912962
2.80969
1.69258
0.432628
0.339332
1.43024
0.904692
0.537763
1.36631
0.404402
0.337242
1.47854
1.27288
0.319817
0.592021
1.17919
0.816774
0.820289
2.53008
0.939218
1.13954
0.654473
1.41648
0.878056
1.36038
0.64851
0.158007
1.07515
1.15544
2.354
0.253848
1.55936
0.294129
1.01522
0.801327
1.00706
1.62418
0.748872
0.582541
0.655242
2.45893
0.647533
1.34643
0.4555
0.806491
2.31566
1.21317
0.433421
0.824305
0.856623
1.0208
0.377897
0.847631
1.65344
0.800001
0.0383571
1.36727
0.455072
0.251831
1.16951
2.28282
1.25247
0.49268
0.9087
3.48846
1.3329
0.854261
1.63771
0.406814
1.87614
1.67274
1.2516
0.654761
1.80985
0.337067
0.470725
1.96122
0.877071
1.39483
1.03254
0.229695
1.00798
1.27487
1.02415
1.11556
0.143991
1.68058
1.36939
0.603155
0.746824
0.117382
0.800527
1.19877
1.43349
0.835645
1.09758
2.55646
1.0941
0.722968
1.79111
0.584632
1.44689
2.64522
1.05929
1.36821
0.408756
1.03059
0.327709
1.01995
0.847797
0.680433
0.926223
1.56315
0.370496
0.516949
0.24128
0.742276
0.641536
2.01369
0.46624
1.18214
1.4415
0.591777
1.32887
0.5843
1.14195
0.781598
1.26557
1.02844
2.31493
0.835644
2.45443
0.0497886
0.410369
1.30875
1.55454
0.195016
1.55243
0.980478
1.21041
0.887104
1.50751
1.27772
0.36189
0.264898
0.3608
0.40555
1.19361
1.8821
1.13419
1.34738
0.568296
0.671505
1.00657
1.22919
1.45467
0.697238
0.832962
1.4784
1.19978
0.890379
0.996172
0.296129
0.331551
0.268989
0.471052
0.937719
1.05609
1.11048
0.861621
2.05712
0.87973
2.77861
0.90633
0.537348
1.80404
1.0179
1.63399
1.91693
1.01005
2.37419
0.558631
1.54707
1.15555
1.04502
0.933994
2.12303
0.771922
0.623639
0.324703
1.84732
1.20323
0.716918
1.33122
1.7005
0.533134
0.997636
0.27563
0.732248
0.835354
2.64704
0.407589
0.891892
0.797616
1.52263
1.27312
0.914813
0.287189
2.12053
1.03783
0.0785314
1.42757
0.934282
1.81023
1.3081
0.240418
0.799762
0.952413
0.747712
0.943841
0.716916
1.14852
0.568441
0.29751
0.915911
1.54192
0.283864
1.31498
1.86624
1.34085
1.41108
0.0628339
1.06823
1.12826
0.441744
0.138336
0.0338764
1.32331
1.29135
0.0464707
0.840627
1.50455
1.79357
0.953671
0.125209
0.278114
0.424621
0.904498
0.757579
1.54345
1.68804
0.48029
0.227243
1.17284
1.74793
1.22351
1.98201
0.870146
1.17859
1.00741
1.59944
1.24627
0.792198
0.945563
0.494583
1.3657
1.86518
0.610625
0.453639
1.23442
0.94131
1.59452
0.0966362
1.18526
1.11145
1.19223
0.985242
1.23193
1.40872
1.21585
1.59794
0.773721
0.715137
1.16949
0.917014
2.04595
1.21838
0.0745856
0.428898
0.798648
1.51813
0.328719
1.04264
1.41251
1.66366
1.82871
0.931359
0.609332
0.773743
0.677973
0.329639
0.671112
1.2568
1.28222
2.23743
1.92158
0.991905
0.238142
0.865452
0.442328
1.20564
0.362157
0.859079
1.35147
0.254638
0.888137
1.26729
0.511361
1.86581
1.85299
0.34177
1.81197
2.05947
0.328802
0.46561
0.854377
1.19175
1.79185
2.2477
0.260693
0.0533484
0.959674