/*--------------------------------*- C++ -*----------------------------------*\
| =========                 |                                                 |
| \\      /  F ield         | OpenFOAM: The Open Source CFD Toolbox           |
|  \\    /   O peration     | Version:  v2012                                 |
|   \\  /    A nd           | Website:  www.openfoam.com                      |
|    \\/     M anipulation  |                                                 |
\*---------------------------------------------------------------------------*/
FoamFile
{
    version     2.0;
    format      ascii;
    class       volScalarField;
    location    "400";
    object      aU;
}
// * * * * * * * * * * * * * * * * * * * * * * * * * * * * * * * * * * * * * //

dimensions      [0 0 0 0 0 0 0];


internalField   nonuniform List<scalar> 
65536
(
0.000455865
0.000444305
0.00164215
0.00190257
0.00159939
0.000575014
8.84827e-05
0.00122328
0.00116399
0.00119641
0.00230776
0.00120726
0.00142769
0.000856264
0.000742819
0.000152795
0.00193429
0.00274852
0.00203775
0.00165778
0.00162226
0.00175732
0.00113814
0.000678466
0.000452918
0.00157765
0.00180106
0.000758926
0.00174702
0.00267852
0.00240481
0.00249182
0.00151439
0.00114207
0.00361688
0.00310748
0.00213105
0.00190363
0.00209776
0.00486613
0.00567708
0.00366599
0.002
0.00243116
0.00311965
0.0028941
0.00307894
0.0036973
0.0040912
0.00406423
0.00421859
0.00391384
0.00164776
0.0057409
0.00763212
0.00454379
0.0034244
0.0034726
0.000847295
0.00450277
0.00792997
0.00549726
0.00574675
0.00456503
0.000885432
0.00637209
0.0123079
0.0145719
0.0175952
0.0237192
0.0167281
0.0316664
0.0344061
0.0206473
0.0269603
0.0156601
0.0157708
0.0291237
0.0226778
0.0141591
0.0270247
0.0173171
0.0235204
0.0420579
0.033015
0.0417799
0.0476713
0.0377312
0.0597264
0.0531585
0.0499092
0.0584621
0.0445865
0.0653917
0.0453877
0.0450875
0.0266284
0.0355802
0.0454436
0.0252549
0.0525345
0.0319215
0.0441128
0.0545416
0.0260207
0.0425707
0.0195954
0.0278227
0.0400225
0.021833
0.0191038
0.0195116
0.00039989
0.0164959
0.0161471
0.009138
0.0168457
0.0120128
0.00802315
0.0133775
0.00823414
0.0051337
0.00830978
0.0125324
0.0127253
0.0124121
0.0167455
0.0205611
0.0210265
0.0173824
0.0117961
0.00756542
0.00610286
0.00307246
0.00206053
0.00212226
0.000898662
0.000367371
0.00113058
0.00087209
0.000326251
0.00023544
0.00032266
0.000392614
0.000221422
0.000170639
0.000102387
0.000144575
0.000390249
0.000635455
0.000618145
8.06274e-05
0.000321584
0.000230213
0.000424748
0.000152635
0.000644933
0.000852735
0.00110391
0.000833446
0.000303044
0.000198161
0.000355581
0.000632168
0.000434008
0.000169319
0.00035447
0.00060511
0.000614806
0.00120094
0.000831252
0.000413017
0.000233686
0.000155668
0.000305561
0.000200186
2.54568e-05
0.00014793
0.000499339
0.000627161
0.00101667
0.000727274
0.000401619
0.000416505
0.000316895
0.000225001
0.000209493
0.000494802
0.000566799
0.00077703
0.000689453
0.000522756
0.000399838
0.000864707
0.000496264
0.000584744
8.49126e-05
0.000361198
0.000804741
0.000622021
0.000906525
0.000606512
0.000483521
0.000320109
0.000799562
0.000874347
0.000378879
0.000853925
0.00107393
0.000815545
0.000406844
0.000110386
0.000145375
0.000263368
0.000752594
0.000860232
0.000345861
0.00100343
0.000775009
0.000390471
0.000666787
0.000476729
0.000617963
0.00023174
0.00017699
0.000680131
0.000391223
0.00066761
0.000342572
0.000264717
0.000177221
0.000556275
0.00108092
0.000954235
0.00087563
0.000492204
0.000151443
0.000701977
0.000424412
0.000392233
0.0004101
0.000643229
0.000586778
0.000539999
0.000845482
0.000797682
0.000934868
0.000520718
0.000545072
0.000788921
0.000607338
0.000600188
0.000464783
0.000537229
0.000880839
0.000676536
0.000692799
0.000619715
0.000129894
0.000627707
0.000633434
0.000586094
0.000687518
0.000535928
0.000231402
0.000348018
0.000300619
0.000450071
0.000226642
0.000545861
0.000344402
0.000710995
0.00104872
0.000637236
0.000307071
0.000109616
0.000257935
0.000304067
0.000675542
0.000428549
0.000670553
9.19232e-05
0.000361853
0.000692946
0.00079865
0.000723968
0.000706581
0.000413149
0.00088224
0.000150151
0.000641818
0.000807389
0.000960815
0.000549702
0.000339925
0.000272282
0.000600578
0.000253004
0.000711269
0.000379992
0.000351316
0.000407186
0.000533724
0.000408682
0.000990248
0.000815312
0.000759957
0.000308789
0.000199886
0.00014658
0.00017404
0.000557282
0.00126398
0.00024719
0.000805553
0.000236619
0.000921394
0.000138914
0.000407266
0.000655222
0.00063879
0.000584373
0.000482621
0.00046668
0.000251955
0.000323357
0.000329019
0.000405151
0.000257384
0.000425013
0.00107506
0.00103585
0.000133472
0.000740914
0.000290112
0.000431794
0.000562346
0.00052695
9.00563e-05
0.000470767
0.000236449
0.000661219
0.0005143
0.000284702
0.000434467
0.000856114
0.000471974
0.000691419
0.000418469
0.000341518
0.000588248
0.000434162
0.000589654
0.000156652
0.000319577
0.000505156
0.000553835
0.00095379
0.000947199
0.000576255
0.000447809
0.000202276
0.000126678
0.000147183
0.000318942
0.000306072
0.000497765
0.000186467
0.00044476
0.000385057
0.000249867
0.000468673
0.000482299
0.000674677
0.000266426
0.000416075
4.11298e-05
0.000220981
0.000546236
0.00111161
0.000671266
0.000581352
0.000350208
0.000627074
0.000764208
0.000486001
0.000155271
0.000616561
0.000650507
0.000477897
0.000527391
0.000461678
0.000600791
0.000456248
0.000280586
0.000247216
0.000391481
0.000321164
0.000750839
0.000682213
0.000574934
0.000262194
0.000611773
0.000536423
0.000779718
0.000836474
0.000250038
0.000379609
0.000331759
0.000221841
0.000509822
0.000209782
0.000447907
0.000465354
0.000696676
0.000651132
0.000365004
0.000517502
0.000528645
0.000620312
0.000490436
5.93811e-05
0.000375298
0.000513663
0.000244693
0.000433413
0.000471548
0.000834007
0.000724768
0.000659426
0.000706478
0.000762266
0.000905351
0.000185997
0.00093414
0.000364942
0.000179965
0.000477641
0.000285931
0.000561102
0.000329325
0.000759665
0.000594343
9.79747e-05
0.000229537
9.73378e-05
0.000562817
0.000714056
0.000787106
0.000117343
0.00059999
0.000669761
0.00100267
0.00103168
0.000574556
0.000429739
0.000435645
0.000607337
0.000906054
0.000518067
8.23774e-05
0.000179034
0.00060121
0.000647594
0.00026041
0.000869083
0.000512531
0.000486115
0.000204484
0.000535553
0.000384852
0.000514285
0.000316589
0.000538918
0.000628048
0.000250015
0.000482686
0.000399055
0.000229873
0.000225695
0.000882414
0.00109358
0.000335281
0.000237244
0.000840867
0.000588899
0.000137791
0.000224748
0.000491395
0.000873057
0.000656376
0.000702226
0.00105059
0.000511198
0.000350211
0.000386353
0.000604728
0.000632044
0.000669769
0.000436264
0.000694579
0.000622459
0.000813357
0.000846888
0.000856305
0.000353497
0.00121297
0.00069014
0.000445573
0.000196046
0.000380364
0.000740193
0.000378882
0.00155112
0.000444312
0.00153938
0.00137853
0.00191347
0.00166625
0.00092119
0.000105241
0.000918169
0.000390465
0.00185351
0.00118779
0.0015136
0.000314632
0.00163775
0.00269414
0.000840111
0.000948266
0.00101954
0.00129477
0.000782481
0.000990082
0.00128378
0.00170621
0.00157759
0.00136358
0.000974109
0.000481126
0.00105791
0.00126983
0.00054921
0.000911637
0.00252403
0.000884138
0.00143481
0.000690997
0.000820616
0.00174101
0.00144954
0.00330027
0.00349828
0.000493878
0.00127727
0.00100571
0.00115924
0.000414791
0.00060921
0.00151108
0.00116623
0.0020556
0.0032633
0.00246694
0.000308512
0.00535735
0.00702944
0.000375371
0.00422966
0.00369761
0.00395675
0.001115
0.00709516
0.00235239
0.0077169
0.00682212
0.00063951
0.00277371
0.00367218
0.0131457
0.00370957
0.0248464
0.0201142
0.0195994
0.0315239
0.00517658
0.02866
0.0258626
0.0039188
0.032502
0.0274512
0.0140935
0.039698
0.0154216
0.0217261
0.0281561
0.0236459
0.0202196
0.0456378
0.0315903
0.0356152
0.0568712
0.0193923
0.067534
0.0221708
0.0462928
0.0267866
0.0374987
0.0363182
0.0261567
0.0463576
0.00544463
0.040759
0.0271183
0.0203783
0.0213138
0.0187459
0.0228733
0.00449475
0.0270685
0.0206295
0.0113265
0.0285947
0.0167914
0.0107227
0.0104673
0.00383015
0.0138317
0.0107327
0.00295126
0.0107122
0.00843531
0.00434771
0.00932813
0.00790323
0.00340969
0.00299521
0.00592812
0.00715564
0.00705646
0.00717189
0.00641317
0.00419313
0.00329465
0.00261096
0.000612501
0.000804754
0.00115547
0.000279568
0.000572486
0.000521231
0.000515891
0.000180663
0.000511439
0.000154892
0.000320296
0.000131586
0.000198403
0.000190933
0.000220097
0.00036279
0.000524722
0.000246908
0.000210877
0.000378914
0.000469921
0.000583784
0.000201745
0.000920814
0.000291506
0.0006119
0.000417856
0.000376961
0.000876614
0.00023404
0.000324447
0.000269456
0.000419727
0.000238822
0.000401749
6.47471e-05
0.000863961
0.000535005
0.000282724
0.000405241
0.000163814
0.000102828
0.000290367
0.000670374
0.00011312
0.000898151
0.000362966
0.000632562
0.000945468
0.000498674
0.000639887
0.000223437
0.000331464
0.000451666
0.000231448
0.00034526
0.000535968
0.000634322
0.000872339
6.83932e-05
0.000867821
0.000382733
0.000292196
0.000392844
0.000407604
0.000842651
0.000335971
0.000699082
6.95272e-05
0.000546287
0.000488822
0.000453724
0.000892315
0.000556522
0.000643256
0.00059802
0.000305659
0.000534833
0.000790818
0.000676663
0.000391586
0.000114892
0.00092582
0.00108646
0.000576481
0.000416202
0.00065227
0.000237227
0.000355494
0.00031823
0.000648969
0.000301183
0.00118101
0.000142898
0.000706924
0.00111518
0.000627553
0.000659984
0.000660062
0.000865199
0.000568163
0.00071407
0.000351668
0.000187001
0.000611282
0.000326597
0.000967421
0.000658781
0.000532017
0.000139992
0.000308363
0.00150708
0.000693209
0.00112172
0.000715225
0.00040985
0.000745888
0.000420547
0.000713563
0.000769201
0.000757143
0.000719228
0.000677647
3.22537e-05
0.000912308
0.000740453
0.000858383
0.000157214
0.000667701
0.000559121
0.000679065
0.000239845
0.000330293
0.000702889
0.00116338
0.000499598
0.000843715
0.000560468
0.000495857
0.000220219
0.000682602
0.000817111
0.000383656
9.26526e-05
0.000526597
0.00107292
0.000339441
0.000782959
0.000437797
0.000598452
0.000524118
0.000329376
0.000620639
0.00103314
0.000329272
0.00132232
0.000622751
0.000360836
0.000842624
0.000413411
0.000664983
0.000921984
0.000308851
0.000119793
8.54374e-05
0.000338573
0.000730709
0.000304788
0.00051573
0.000253715
0.000535432
0.00103274
0.000209074
0.000263838
0.00033127
0.000316798
0.000179756
0.00106665
0.000719149
0.00132053
0.000498099
0.000244486
0.000157129
0.00119202
0.000794599
0.000969754
0.000799699
0.000663332
0.000511971
0.000964208
0.000951247
0.00025749
0.000387329
0.000612846
0.0010099
0.00120447
0.000672201
0.00130815
0.000850153
0.000628358
0.000227312
0.000356984
0.000881906
0.000176604
0.000653354
0.000706552
0.000812012
0.00013491
0.000625979
0.000786845
0.00112474
0.00047937
0.00148851
0.000493808
0.000356901
0.000548532
0.000204124
0.000605601
0.000520778
0.000298799
0.000503765
0.000510589
0.000740293
0.000937345
0.000345298
8.14928e-05
0.000541322
0.000767816
0.000270436
0.000448783
5.0738e-05
0.000104059
0.000268059
0.000587106
9.37201e-05
0.000474306
0.000771246
0.00104351
0.00090131
0.000487074
0.000129443
0.000231166
0.000426034
0.000203922
0.00100896
0.000344357
0.00105389
8.06888e-05
0.000403233
0.000695584
0.000560401
0.000200751
0.000874657
0.000308006
0.000279
0.00050474
0.000434384
0.000918792
0.00123258
0.000633191
0.000183013
0.000574076
0.000479558
0.000373778
0.00018496
0.000494994
9.42573e-05
0.000381308
0.000626825
0.000889619
0.000189668
0.000672974
0.00106859
0.000409555
0.000633309
0.000762297
0.00120753
0.000620196
0.000837131
0.000146317
0.000513101
0.000535327
0.000493907
0.000429861
0.000200474
0.000237489
0.000162676
0.000737275
0.000397545
0.000321042
0.000252465
0.000641187
0.000722278
0.000572343
0.000795457
0.000277711
0.000189086
0.000528841
0.000433923
0.000575215
0.000999852
0.00077376
0.000437342
0.000852121
0.000997214
0.000352575
0.00104338
0.000181776
0.000398462
0.000432806
0.000247163
0.00023515
0.000215208
0.000486364
0.000423383
0.000153264
0.00038946
0.000523282
0.000628577
0.000784732
0.000176552
0.000289761
0.000375937
0.0009091
0.00049109
0.000667783
0.000460294
0.000286545
0.000831596
0.000816804
0.000590803
0.000416932
0.000838445
0.000260861
9.90285e-05
0.000434522
0.000927604
0.000664577
0.000199107
0.000379846
0.00064345
0.000402304
0.000232106
8.33449e-05
0.00143861
0.0010634
0.00053154
0.00150059
0.0011755
0.00162051
0.00062353
0.000645269
0.000581224
0.000267562
0.000692403
0.000874681
0.00142777
0.00132104
0.000768787
0.000902677
0.000500535
0.000516954
0.000269797
0.000719221
0.000285116
0.000781108
0.000340815
0.000871759
0.00110338
0.000950458
0.0007623
0.000777569
0.000955449
0.0010035
0.000171503
0.000630024
0.000775332
0.00159198
0.000552471
0.000906192
0.00118794
0.0012441
0.00142735
0.00148309
0.00165267
0.00148176
0.000548134
0.000315458
0.000626032
0.000869571
0.000979798
0.000576106
0.00163621
0.00216476
0.00102847
0.00259214
0.00299152
0.00145654
0.00155648
0.00133578
0.000542552
0.000910291
0.000582026
0.000875416
0.000937621
0.00142182
0.000595209
0.000727652
0.00105904
0.000344403
0.000294547
0.00153698
0.00279445
0.00276053
0.00264323
0.00125199
0.00087713
0.00198407
0.00312392
0.00151825
0.00205163
0.00118558
0.00254082
0.0030235
0.00350167
0.00398967
0.00392598
0.00280995
0.00241847
0.00361813
0.00499273
0.00517621
0.00529685
0.00477552
0.00629435
0.00128539
0.00260821
0.00165071
0.00674984
0.00492733
0.00484132
0.0018418
0.00779728
0.00410902
0.00830265
0.00601924
0.0145437
0.00359706
0.0149759
0.0157936
0.0182256
0.00647796
0.0177897
0.00903899
0.0110187
0.0295856
0.0205133
0.0252722
0.0385387
0.0104505
0.0406016
0.0144354
0.0235614
0.00850648
0.0189562
0.0193705
0.0287931
0.047986
0.0159475
0.05592
0.0312256
0.049236
0.0475746
0.017946
0.0395795
0.00429757
0.0373953
0.0199182
0.0100816
0.0195089
0.0273304
0.0282407
0.00962838
0.027558
0.040649
0.0179034
0.0284642
0.0501067
0.033528
0.0147528
0.0296758
0.0105362
0.0156156
0.0127768
0.00786301
0.0161562
0.00637368
0.0154776
0.0170249
0.0134439
0.0090831
0.00598846
0.00351093
0.00364541
0.00906695
0.00730167
0.00513298
0.0085365
0.0074093
0.00450649
0.00352901
0.00218764
0.000540147
0.000848491
0.000807861
0.000376818
0.0001966
0.000663098
0.000397145
0.000293146
0.000484399
0.000442743
0.000193242
2.28657e-05
0.000193138
0.000287816
9.80045e-05
0.000859868
0.000500125
0.000233436
0.000323281
0.000377817
0.000296652
0.00071673
0.000236606
0.000383328
0.000427945
0.000673304
0.000326637
0.000468653
0.000873161
0.000547879
0.000536254
0.000150495
8.98487e-05
0.000245691
0.000309995
0.000346182
0.000751771
0.000452401
0.000309731
0.000490705
0.000496178
0.000174185
0.000754822
0.000655077
0.001035
0.000856438
0.000874704
0.000706984
0.000792932
0.0012565
0.00029198
0.000187541
0.000636447
0.000661919
0.000597669
0.000298481
0.00063669
0.000947918
0.000926485
0.000239423
0.000793731
0.000795733
0.000581332
0.000155231
0.00052822
0.000723526
0.000586512
0.000834594
0.000824796
0.000409547
0.000642004
0.000474553
0.000661344
0.00044225
0.000279213
9.1336e-05
0.00050605
0.000404163
0.000534149
0.00109706
0.000596667
0.00101203
0.000917214
0.00108345
0.000590194
0.000679009
0.000427503
0.000658142
0.000887952
0.000974226
0.000594474
0.00124614
0.00108187
0.00135507
0.00096836
0.00116049
0.00134957
0.00123422
0.000511632
0.000541205
0.000688645
0.000796163
0.000891833
0.000813622
0.000796802
0.000751553
0.00101558
0.00136806
0.0006131
0.00075794
0.000966878
0.00147098
0.00177677
0.00107341
0.000909179
0.000881826
0.0010976
0.000829125
0.000942527
0.00113951
0.000493439
0.00112729
0.000397841
0.000725157
0.00115166
0.00144764
0.000803123
0.000854534
0.000469646
0.000794326
0.000690191
0.00061569
0.000446371
0.00144678
0.00120634
0.00168602
0.000822723
0.000642704
0.000324345
0.000629422
0.0010485
0.000684424
0.000701901
0.000586669
0.000736756
0.000656141
0.00128169
0.000725078
0.0011079
0.000250851
0.00048403
0.000685109
0.000907551
0.000510025
0.0015645
0.00093911
0.00107599
0.000857385
0.000704916
0.000850387
0.000784738
0.00158517
0.000807445
3.73993e-05
0.000288563
0.000637774
0.000437942
0.000201864
0.000715917
0.000629709
0.00138336
0.00127249
0.000979695
0.000155721
0.000673962
0.000461421
0.000933636
0.00127268
0.00121058
0.00106119
0.0010393
0.000298135
0.000970524
0.00123063
0.00161615
0.00118687
0.000840559
0.000998581
0.00133763
0.00130451
0.00118342
0.000912848
0.000652533
0.000594089
8.98847e-05
0.00143663
0.00188719
0.00167738
0.000696508
0.000785588
0.000582444
0.0005109
0.000756898
0.000914478
0.000991715
0.000778138
0.000828429
0.000809939
0.000434202
0.000621891
0.000745562
0.00164299
0.000931425
0.00132392
0.000644744
0.000787016
0.000509097
0.000381558
0.000705528
0.000800219
0.000632677
0.000747648
0.00118588
0.000799475
0.000568277
0.000310058
0.000574942
0.000929054
0.000332311
0.000239323
0.000354877
0.000265349
0.000403032
0.000337331
0.000671015
0.000448409
0.000849908
0.00132648
0.000931332
0.000776584
0.000315803
0.00032635
0.000337136
0.00118878
0.00115441
0.00113143
0.000986523
0.000680117
0.000426647
0.000511647
0.000573613
0.000933163
0.00101722
0.000975621
0.000363605
0.000285592
0.000705089
0.0011961
0.00109069
0.00114757
0.000366121
0.000977355
0.000850827
0.000428569
0.000548369
0.000302606
0.00057793
0.000793262
0.00124712
0.00105596
0.000904802
0.00115539
0.00103657
0.000194451
0.000946584
0.00173179
0.00153406
0.000634102
0.000974026
0.000844152
0.000589597
0.000183772
0.000774251
7.04496e-05
0.000214436
0.000481201
0.000347592
0.000311125
0.000569544
0.000839416
0.000862001
0.000408618
0.000603581
0.00084598
0.000519939
0.000766634
0.000630717
7.92504e-05
0.000490807
0.00121234
0.00141655
0.00120161
0.00119025
0.0012886
0.00114188
0.00063464
0.000859969
0.000746183
0.000258754
0.000389168
0.000494817
0.00026208
0.000126498
0.000470572
0.000244106
0.00011616
0.000486049
0.00100805
0.000469573
0.000279828
0.000530848
0.000708248
0.000180796
0.000773313
0.00108416
0.000924997
0.0010376
0.00107461
0.000914576
0.00106295
0.00121542
0.000272348
0.000623565
0.000723531
0.000365671
0.000635047
0.00117145
0.0005238
0.00065415
0.000418883
0.000368618
0.000849394
0.000228045
0.000878905
0.00210595
0.00144252
0.00122534
0.00203599
0.00277358
0.00176171
0.000689101
0.000970353
0.000605312
0.000235234
0.000575335
0.00127809
0.00182552
0.0025446
0.00130632
0.00106457
0.000316999
0.000362354
0.00037493
0.000626126
0.000896954
0.000628341
0.000127783
0.00107381
0.000853938
0.00090881
0.000473482
0.00160244
0.00160334
0.00157094
0.00110433
0.000580872
0.00179683
0.00297007
0.000465017
0.000542525
0.000887339
0.00165845
0.000266382
0.00158182
0.000766059
0.000599351
0.00101946
0.00104137
0.000874605
0.00042306
0.000851719
0.000836427
0.000596009
0.00178653
0.00249176
0.00271391
0.0013113
0.0011838
0.00156511
0.000550232
0.000660257
0.000452484
0.00198994
0.0029805
0.00288969
0.00193171
0.0019281
0.00114502
0.00106605
0.00197053
0.00137509
0.00053659
0.000955019
0.00173096
0.00182141
0.00260828
0.001665
0.00110544
0.00140118
0.000542395
0.000626273
0.00208376
0.00302794
0.00205454
0.000984296
0.000386213
0.00170948
0.0026999
0.00100796
0.0017253
0.00157149
0.0011861
0.000932746
0.00223503
0.00554532
0.00513793
0.00157657
0.00340262
0.00768704
0.00384537
0.00496812
0.00292909
0.00226063
0.00584393
0.00307407
0.0128898
0.00327081
0.0106643
0.00346361
0.0144492
0.0117262
0.00833729
0.00723573
0.0178887
0.0186306
0.0126522
0.0181877
0.0239429
0.0105358
0.0363232
0.0106579
0.023292
0.0167839
0.00156376
0.00643853
0.0177331
0.0262267
0.00771831
0.0393002
0.0132926
0.0474016
0.043104
0.0238497
0.0511879
0.0122053
0.0415478
0.0388775
0.0126395
0.0325531
0.0368036
0.014628
0.0297173
0.045077
0.0281792
0.00307424
0.0235821
0.0216418
0.00751011
0.029032
0.0365448
0.0204027
0.00140576
0.00601865
0.00565497
0.01034
0.015615
0.01645
0.0112045
0.00848148
0.00425514
0.00222939
0.00236888
9.7329e-05
0.00874104
0.0104148
0.00315918
0.00641871
0.00894817
0.00651145
0.00361624
0.00261266
0.00153943
0.000708865
0.000540866
0.000745049
2.70572e-05
0.000170835
0.000476932
0.000275826
0.000155671
0.00031652
0.000576455
0.000113962
0.000103656
7.89194e-05
0.000515092
0.000624651
0.00141384
0.000951807
0.000372039
0.000440423
2.63042e-05
0.000560144
0.000558469
0.000441673
0.000707545
0.000824073
0.000919478
0.000225684
0.000553496
0.000578742
0.00106941
0.000792585
7.25793e-05
0.000278991
9.46022e-05
0.000729259
0.000879315
0.0010933
0.000453856
0.000499726
0.00114054
0.000821268
0.000935106
0.000944545
0.000288165
0.00145906
0.000229417
0.00088812
0.000738079
0.000354217
0.00117391
0.000204158
0.00015351
0.000899879
0.000864205
0.000590108
0.000369762
0.000840187
0.00102114
0.00149998
0.000247509
0.0002208
0.000808139
0.000630311
0.000464442
0.000385847
0.000273629
0.00116703
0.00167122
0.0011262
0.00140479
0.00040229
0.000900863
0.000377697
0.000332654
0.000437614
0.000336668
0.000136039
0.000595267
0.00079702
0.00153653
0.00203281
0.000866893
0.00196713
0.000213624
0.000791473
0.00128188
0.00118895
0.000926474
0.00175082
0.00176633
0.000609311
0.00174208
0.000408433
0.00192814
0.00113344
0.00117712
0.00280019
0.00189114
0.00131408
0.0010063
0.000743267
0.000556669
0.0019219
0.000877099
0.00171511
0.00103742
0.000604986
0.00227088
0.000786444
0.00107814
0.00200097
0.000949798
0.00209734
0.00135087
0.000174016
0.00138228
0.00136348
0.00151982
0.000822897
0.00158707
0.000605635
0.00166707
0.00157895
0.00128522
0.000946556
0.00240834
0.00102443
0.00146089
0.000418129
0.0009546
0.000375945
0.000691964
0.00132366
0.00127713
0.00212017
0.00224354
0.000745285
0.000856074
0.000517645
0.000614081
0.00127811
0.000585535
0.000879225
0.000608366
0.000616217
0.000483881
0.00146933
0.000276292
0.00138908
0.000432768
0.000300314
0.000882677
0.000522494
0.00146593
0.00107069
0.000891649
0.00156455
0.000994907
0.000574752
0.0011953
0.00163677
0.00146751
0.00182689
0.000374831
0.000505887
0.000728013
0.000773161
0.000638318
0.000861556
0.000854219
0.000379675
0.00314841
0.00103511
0.000584632
0.000290702
0.00163669
0.00116255
0.00293881
0.000814164
0.00154484
0.00123325
0.00021484
0.00139456
0.00123143
0.00248063
0.000913396
0.000831261
0.00133505
0.00177295
0.00167284
0.00118829
0.00145068
0.000502277
0.000354125
0.000528781
0.000985375
0.00281017
0.000772371
0.00152093
0.000892338
0.000456082
0.00029343
0.00095454
0.00132381
0.000994815
0.000759474
0.00100202
0.00120624
9.33579e-05
0.000309275
0.000994411
0.00156877
0.000265882
0.00183412
0.000950408
0.00166545
0.000603018
0.000287025
0.00064532
0.00110172
0.00153603
0.000755987
0.00137764
0.00148658
0.000389713
0.000482992
0.000926499
0.000680132
0.000767952
0.00024537
0.000335492
0.000410121
0.000381241
0.000104511
0.000670366
0.000553421
0.000820382
0.00140113
0.00104752
0.000733406
0.000530354
0.000571884
0.000708079
0.00124328
0.00268675
0.00140113
0.00193105
0.000185299
0.000827248
0.000545053
0.00103483
0.00150997
0.0016724
0.000977543
0.00138757
0.000737386
0.000513579
0.00101106
0.000640197
0.00186225
0.00128892
0.000883043
0.00146634
0.000315149
0.000918184
0.000612248
0.00125537
0.00123052
0.00133838
0.00244939
0.000813224
0.00240276
0.00110063
0.000523452
0.00077481
0.00320206
0.000651809
0.000848834
0.000752382
0.00134767
0.000278536
0.000555203
0.00118803
0.001088
0.000793014
0.000478262
0.000686888
0.000994315
0.00118926
0.000978361
0.00125919
0.000578795
0.000786164
0.000804962
9.19085e-05
0.000612741
0.000722426
0.000680048
0.00147273
0.00167837
0.00106777
0.00255712
0.00143538
0.000743474
0.00163883
0.000222481
0.00121932
0.000815344
0.000619657
0.000722594
0.00019376
0.000415578
0.00044864
0.000634271
0.000552276
0.000324799
0.000610443
0.00063684
0.000719456
0.000476254
0.000811077
0.000434145
0.000166124
0.000668331
0.00206064
0.00181582
0.00165709
0.00214448
0.000697607
0.00164798
0.00107354
0.000251083
0.000104416
0.00109351
0.000308503
0.000760289
0.00181132
0.000661568
0.000524414
0.000590111
0.000484828
0.000662063
0.000356716
0.00182115
0.00155376
0.00329627
0.0021488
0.000572925
0.00453776
0.000847172
0.000889225
0.000521599
0.000822871
0.000856549
0.000752152
0.0020594
0.0014637
0.00434718
0.000369991
0.00182482
0.00108773
0.00101506
0.00112792
0.000994242
0.00145502
0.000261254
0.000956436
0.000456924
0.00105989
0.000703295
0.000110943
0.00261223
0.0011776
0.00321294
0.000775525
0.00263055
0.00256336
0.00403663
5.19316e-05
0.000372696
0.000837443
0.000690991
0.000678548
0.000626003
0.00109513
0.000745091
0.000712815
0.00116256
0.000366362
0.000253366
0.00089929
0.00154997
0.00073977
0.000354427
0.00215273
0.000999417
0.00132096
0.000851398
0.000969904
0.00188282
0.000226621
0.00175832
0.00227364
0.000899689
0.000900895
0.00132756
0.000885772
0.00114992
0.00171533
0.00143063
0.000716401
0.00075186
0.0012296
0.00198907
0.00104588
0.000570195
0.00304873
0.00269918
0.00114827
0.00113986
0.00173095
0.00288505
0.00201025
0.00233617
0.00277936
0.00101655
0.00250193
0.00245754
0.00194839
0.00189109
0.0026471
0.00189827
0.00120105
0.00217267
0.00457382
0.00635658
0.00338924
0.0067516
0.00373975
0.00246865
0.00606333
0.00875937
0.00200951
0.00680277
0.00737087
0.00492156
0.00684595
0.00534663
0.00945656
0.0105805
0.0114344
0.012171
0.0144904
0.0148457
0.0190268
0.0153898
0.0201854
0.00189509
0.0175198
0.0132848
0.00782789
0.0237848
0.00750952
0.0172627
0.0219145
0.0106041
0.0197909
0.0251995
0.0162196
0.0432785
0.0189965
0.038675
0.0422631
0.0163489
0.0459791
0.0228058
0.0184257
0.0273331
0.00474505
0.0221459
0.035811
0.0243099
0.00600896
0.0206551
0.0131268
0.00520385
0.0154433
0.0167318
0.00873759
0.0063868
0.00535537
0.0180386
0.0216753
0.0136753
0.00442588
0.00363464
0.00546706
0.00390316
0.00344364
0.00574018
0.00443381
0.00612177
0.00214268
0.0111406
0.00769746
0.00366383
0.0102907
0.00965262
0.00610785
0.00375818
0.00242821
0.00138952
0.00100916
0.000467654
0.000339234
0.000401115
0.000271708
0.000287176
0.000336549
0.0001727
5.60296e-05
0.000529655
0.000239765
7.14109e-05
0.00011301
0.000674907
0.00154584
0.00126282
0.00115105
0.00065174
0.000176451
0.000437996
0.000672614
0.000157522
0.000500958
0.00106388
0.00156427
0.00117357
0.00100859
0.000671211
0.00105886
0.000722705
0.00134919
0.000620411
0.00096212
0.000264912
0.00139279
0.000232257
0.00168871
0.000749359
0.000265473
0.00174997
0.000295491
0.00141925
0.000795229
0.000509121
0.00164478
0.000340448
0.000830355
0.000707215
0.000465286
0.00124677
0.00100142
0.000688173
0.000501566
0.00138194
0.000122428
0.0011706
0.00127353
0.00112993
0.00162623
0.00111267
0.000504174
0.000782578
0.000788049
0.000211532
0.00141637
0.0008734
0.00108982
0.00227032
0.000668789
0.0016559
0.000499718
0.00127475
0.000643246
0.000908907
0.000727251
0.000594582
0.000556572
0.00102255
5.948e-05
0.00276213
0.00137996
0.00215032
0.00208408
0.000922715
0.000517309
0.00181778
0.00197978
0.000448117
0.00215022
0.00182355
0.00104822
0.00193428
0.000899488
0.00233705
0.00157957
0.000851444
0.00400073
0.000865804
0.00279346
0.000392916
0.000781377
0.000389812
0.00233599
0.00067851
0.00175144
0.00117869
0.000677569
0.0025204
0.000835642
0.00133557
0.0021047
0.00123538
0.0018532
0.00131936
0.000672158
0.00176426
0.00101757
0.00251774
0.000475183
0.0020967
0.00134236
0.00145911
0.00247228
0.000996642
0.000527116
0.00265377
0.00164932
0.00158193
0.000466765
0.000940096
0.000149073
0.000340098
0.00178134
0.00133468
0.00259693
0.00186275
0.00177227
0.000224225
0.000383209
0.000745612
0.000992301
0.00103815
0.000627585
0.00067647
0.000311909
0.000197173
0.00132803
0.000357242
0.00168155
0.000736142
0.000535849
0.000823203
0.0011375
0.00138944
0.000714042
0.0012439
0.00162217
0.00208796
0.000339381
0.00162885
0.00222107
0.00133635
0.00259846
0.00102907
0.00131622
0.000451566
0.0017077
0.00136331
0.000747789
0.00133145
0.00323458
0.00259035
0.000947632
0.000957452
0.000845355
0.00171689
0.00181706
0.00281952
0.00187609
0.00120621
0.00182736
0.000605707
0.0010063
0.00214594
0.00194025
0.00221203
0.000472992
0.0012066
0.00211647
0.00167597
0.00115803
0.00121344
0.000764156
0.000577866
0.000135176
0.00124536
0.00245667
0.00185945
0.00078051
0.000530395
0.000888352
0.000802168
0.00170436
0.00180925
0.00132571
0.000615092
0.00162621
0.00182248
0.000785381
0.000353853
0.00149402
0.00114049
0.000640843
0.0022079
0.000894359
0.00205583
0.000541682
0.000304017
0.000415913
0.00188088
0.00101747
0.00174353
0.00112462
0.00225021
0.0004441
0.000310161
0.00131895
0.001274
0.000894018
0.000837819
0.000747545
0.000306898
0.000351908
0.00013554
0.000683794
0.000614804
0.000986704
0.00154836
0.00129168
0.00103999
0.00115192
0.000976785
0.000588623
0.0025286
0.00279946
0.000741125
0.00227922
0.000224921
0.000577626
0.00114362
0.00102517
0.00171125
0.00191918
0.00111565
0.00150504
0.00111981
0.000251698
0.00125922
0.000687352
0.00230372
0.00226988
0.000429655
0.00186938
0.000297923
0.000882441
0.00181958
0.00156563
0.00211734
0.00200456
0.00241178
0.00104163
0.00292436
0.000289828
0.000634701
0.000712501
0.00282765
0.00286418
0.000218228
0.000532298
0.00126123
0.000129032
0.00167761
9.40434e-05
0.00172082
0.000652761
0.0010744
0.000901215
0.00144348
0.00123167
0.00162548
0.00137599
0.000819181
0.000887786
0.0010904
0.00112726
0.000258299
0.00116661
0.00155404
0.00142018
0.00106221
0.00234193
0.0018532
0.00187034
0.00117731
0.00202658
0.00146703
0.00139098
0.00147907
0.000374273
0.00100288
0.000713625
0.000454222
0.000385835
0.0012832
0.000590183
0.000402265
0.000230523
0.00163342
0.000893903
0.000809156
0.000564313
0.0014296
0.000300555
0.000878011
0.00260393
0.00213765
0.00207004
0.0026662
0.000513117
0.00210574
0.00146884
0.000300683
0.000513334
0.00086341
0.000539967
0.00179358
0.00207973
0.000894965
0.000770028
0.000127376
0.000253964
0.000693329
0.000302019
0.00210724
0.00150675
0.00345852
0.00213184
0.003213
0.00362627
0.00132838
0.00109799
0.00105166
0.000306555
0.00145716
0.00209851
0.00269852
0.00235333
0.00381554
0.00257496
0.00182953
0.00182966
0.000692903
0.0014081
0.00179098
0.00149363
0.00080514
0.00084113
0.000856228
0.000895345
0.00037811
0.00052695
0.00266032
0.00194271
0.00311324
0.00156727
0.0029385
0.00335645