/*--------------------------------*- C++ -*----------------------------------*\
| =========                 |                                                 |
| \\      /  F ield         | OpenFOAM: The Open Source CFD Toolbox           |
|  \\    /   O peration     | Version:  v2012                                 |
|   \\  /    A nd           | Website:  www.openfoam.com                      |
|    \\/     M anipulation  |                                                 |
\*---------------------------------------------------------------------------*/
FoamFile
{
    version     2.0;
    format      ascii;
    class       volScalarField;
    location    "400";
    object      he_filtered;
}
// * * * * * * * * * * * * * * * * * * * * * * * * * * * * * * * * * * * * * //

dimensions      [0 2 -2 0 0 0 0];


internalField   nonuniform List<scalar> 
65536
(
-5514.45
-5513.08
-5510.69
-5507.47
-5503.48
-5498.68
-5493.03
-5486.67
-5479.81
-5472.52
-5464.63
-5456.32
-5447.2
-5437.43
-5427.26
-5417.54
-5409.08
-5401.56
-5393.56
-5384.55
-5375.01
-5365.58
-5356.38
-5347.28
-5338.6
-5330.84
-5324.15
-5318.08
-5312.6
-5308.16
-5304.69
-5301.79
-5299.24
-5297.56
-5297.56
-5299.17
-5301.76
-5305.19
-5309.75
-5315.87
-5323.55
-5332
-5340.55
-5349.47
-5359.29
-5370.12
-5381.93
-5394.86
-5409.1
-5424.46
-5440.47
-5457.11
-5474.66
-5493.63
-5513.46
-5534.61
-5557.12
-5579.94
-5602.92
-5626.57
-5650.45
-5675.07
-5701.75
-5728.69
-5754.37
-5779.96
-5806.71
-5833.12
-5859.34
-5891.36
-5922.87
-5951.75
-5977.88
-6009.8
-6052.85
-6090.63
-6122.64
-6151.48
-6181.22
-6215.94
-6250.86
-6282.95
-6313.66
-6345.84
-6378.89
-6415.06
-6457.47
-6498.32
-6532.93
-6560.91
-6605.13
-6664.1
-6715.33
-6755.47
-6792.76
-6846.83
-6905.84
-6958.3
-7003.31
-7050.37
-7105.65
-7155.5
-7193.2
-7224.03
-7252.54
-7289.11
-7326.99
-7360.9
-7389.74
-7412.69
-7429.66
-7440.56
-7443
-7438.53
-7424.78
-7393.53
-7339.31
-7261.07
-7155.03
-7010.52
-6811.11
-6541.6
-6195.8
-5765.79
-5273
-4717.3
-4110.14
-3465.96
-2803.9
-2147.05
-1523.4
-955.607
-455.742
-30.964
316.457
585.539
779.356
905.894
985.56
1037.88
1072.41
1092.18
1105.39
1113.3
1114.53
1113.61
1106.58
1099.87
1090.59
1082.06
1074.26
1066.15
1063.13
1059.44
1061.11
1065
1069.53
1074.1
1080.01
1085.05
1088.94
1093.15
1095.71
1095.61
1095.08
1091.78
1092.65
1092.19
1093.33
1094.25
1093.82
1093.46
1093.16
1093.09
1092.94
1093.95
1095.9
1098.02
1099.65
1101.17
1102.84
1102.83
1102.78
1104.82
1104.03
1104.02
1104.01
1104.62
1105.59
1108.38
1109.64
1112.05
1114.39
1117.47
1120.04
1120.75
1122.62
1124.18
1123.47
1122.58
1120.82
1116.77
1112.2
1104.97
1096.99
1089.88
1081.09
1074.83
1065.51
1063.96
1062.37
1064.04
1067.82
1071.06
1072.8
1074.84
1075.45
1075.35
1075.32
1072.74
1068.64
1064.17
1061.78
1057.75
1057.56
1057.81
1059.81
1061.96
1062.99
1065.67
1068.71
1073.48
1074.63
1078.93
1082.26
1086.09
1090.91
1094.34
1096.21
1098.16
1099.5
1097.4
1096
1092.78
1091.37
1089.32
1088.28
1087.31
1086.86
1085.63
1085.84
1086.27
1086.69
1088.83
1091.01
1092.98
1092.89
1093.74
1093.67
1093.69
1093.13
1092.46
1091.72
1091.88
1090.14
1087.35
1083.68
1079.21
1076.56
1077.03
1079.18
1084.71
1091.24
1101.06
1108.21
1114.42
1117.43
1119.7
1120.19
1119.88
1117.97
1114.88
1109.69
1106.15
1101.09
1097.85
1096.28
1093.61
1091.83
1088.82
1083.47
1077.02
1070.58
1063.82
1062.5
1061.69
1061.65
1061.79
1060.46
1058.33
1056.47
1056.38
1055.31
1054.93
1055.84
1056.36
1055.23
1055.09
1053.71
1052.87
1051.37
1053.09
1054.59
1058.96
1062.61
1067.06
1069.4
1071.69
1072.75
1071.98
1071.75
1071.14
1072
1074.36
1075.77
1078.46
1080.16
1084.6
1086.98
1090.96
1094.2
1095.93
1096.43
1097.75
1097.29
1095.93
1094.01
1090.99
1088.19
1086.55
1084.11
1082.86
1082.26
1082.95
1084.27
1087.38
1088.8
1088.92
1087.76
1088.3
1089.62
1091.8
1094.54
1098.79
1101.65
1103.62
1104.94
1105.93
1106.49
1106.47
1107.06
1109.38
1112.56
1115.3
1116.57
1117.07
1117.1
1116.03
1114.79
1113.29
1110.19
1108.56
1104.63
1103.6
1101.45
1099.42
1098.14
1099.75
1105.9
1111.95
1119.98
1129.01
1136.05
1141.25
1143.61
1144.4
1143.43
1139.97
1135.74
1131.61
1127.15
1124.4
1121.68
1119.79
1116.07
1114.14
1111.62
1109.02
1106.22
1104.5
1104.01
1103.59
1105.45
1106.97
1110.89
1114
1115.79
1116.4
1115.25
1111.57
1109.18
1104.9
1101.71
1098.32
1096.98
1096.28
1097.04
1100.19
1100.84
1101.74
1102.68
1102.06
1101
1102.39
1102.14
1104.39
1104.64
1104.7
1106.09
1107.19
1107.52
1108.78
1110.28
1110.98
1111.52
1108.76
1105.72
1103.12
1098.05
1096.66
1095.94
1095.58
1093.19
1088.22
1080.94
1074.35
1068.92
1062.92
1060.17
1059.91
1060.69
1061.41
1067.03
1072.17
1081.14
1088.43
1097.85
1106.3
1113.17
1117.92
1119.78
1121.98
1122.98
1121.77
1121.5
1120.42
1118.85
1115.02
1110.76
1105.83
1102.04
1096.69
1093.7
1091.68
1092.25
1095.51
1098.04
1101.83
1104.99
1108.41
1110.88
1112.29
1115.08
1116.86
1115.64
1116.36
1117.58
1116.04
1115.17
1114.13
1111.3
1109.85
1107.15
1104.95
1102.3
1099.04
1094.78
1092.15
1089.68
1088.42
1087.69
1089.64
1088.83
1086.89
1084.42
1079.63
1075.26
1070.85
1063.36
1057.3
1051.58
1048.82
-5623.24
-5622.93
-5619.46
-5615.19
-5612.59
-5607.53
-5599.57
-5592.78
-5586.79
-5579.35
-5572.3
-5563.58
-5553.04
-5541.43
-5528.98
-5517.2
-5507.64
-5499.69
-5490.35
-5479.07
-5467.03
-5455.56
-5444.84
-5434.21
-5424.04
-5415.04
-5407.53
-5400.45
-5393.75
-5388.53
-5384.57
-5381.08
-5377.53
-5374.86
-5375.02
-5377.32
-5379.98
-5383.26
-5387.93
-5395.05
-5404.69
-5414.5
-5423.52
-5433.38
-5444.66
-5456.61
-5469.4
-5483.74
-5499.97
-5517.84
-5536.82
-5557.17
-5577.58
-5597.26
-5619.74
-5644.55
-5665.76
-5686.1
-5708.4
-5731.24
-5759.04
-5792.47
-5819.02
-5837.68
-5858.83
-5885.35
-5914
-5948.96
-5990.18
-6005.97
-6009.32
-6038.88
-6101.01
-6161.58
-6175.28
-6188.25
-6219.18
-6259.81
-6306.45
-6342.07
-6363.01
-6382.59
-6411.04
-6446.85
-6494.27
-6543.82
-6572.43
-6606.06
-6639.09
-6691.25
-6750.72
-6789.75
-6828.91
-6862.03
-6918.34
-6979.37
-7043.54
-7094.26
-7143.67
-7190.21
-7234.67
-7273.53
-7312.44
-7352.7
-7399.51
-7436.02
-7463.97
-7491.56
-7525.39
-7554.29
-7577.11
-7580.32
-7582.15
-7578.84
-7566.16
-7543.15
-7497.07
-7413.76
-7306.36
-7182.22
-7019.58
-6781.67
-6439.67
-5999.12
-5484.47
-4904.39
-4266.01
-3591.31
-2900.7
-2215.9
-1578.02
-1014.82
-529.826
-125.541
201.019
452.091
636.288
765.13
846.652
892.887
921.53
950.925
964.07
968.96
974.065
967.549
967.561
957.48
949.018
934.158
919.099
916.4
907.769
916.274
916.919
914.558
917.204
930.618
936.807
944.207
950.339
951.075
951.178
954.718
950.116
951.21
941.324
946.811
950.535
953.709
953.558
947.532
943.194
945.518
953.131
957.301
958.234
958.577
959.95
960.755
959.929
961.956
959.244
950.622
956.245
960.248
963.479
965.219
962.975
956.476
964.558
970.295
977.003
975.835
977.821
984.423
982.179
980.41
983.551
984.418
980.336
979.231
970.393
965.742
959.79
948.55
938.486
918.75
922.247
911.376
918.595
923.307
927.336
931.096
938.975
936.884
936.874
938.723
935.627
933.05
927.115
921.525
909.04
914.66
916.313
917.129
913.009
911.453
920.228
925.028
923.828
920.122
932.52
933.395
942.168
947.244
946.786
950.632
957.502
957.607
954.581
959.522
954.437
956.171
950.669
949.113
944.454
944.453
942.582
945.25
941.52
940.467
943.681
946.558
949.668
950.6
956.25
953.879
951.912
950.775
948.954
954.296
954.469
950.087
948.922
945.406
941.192
940.559
933.958
926.989
932.544
940.661
951.713
955.089
966.23
971.502
981.549
983.106
984.646
982.248
980.278
972.813
968.235
955.223
955.523
953.988
949.948
953.528
952.922
949.169
946.097
937.307
924.471
921.016
915.96
921.033
922.391
919.053
917.863
917.9
914.203
907.722
912.357
916.914
912.868
909.18
915.874
915.479
915.606
911.065
908.73
904.554
913.745
918.387
927.58
928.612
930.798
931.018
930.027
930.978
931.15
935.83
935.312
933.781
936.896
937.023
943.787
940.801
947.053
948.961
950.801
953.717
958.287
956.808
957.238
955.965
952.478
949.674
949.895
944.923
941.372
935.653
932.99
937.275
945.421
947.799
949.59
949.546
948.113
942.426
945.459
953.356
958.919
956.808
960.568
962.178
965.136
964.452
964.378
964.749
964.584
968.835
969.692
973.101
976.451
976.386
975.321
975.678
972.541
969.091
970.564
964.952
967.189
958.277
957.76
957.971
956.951
953.578
952.08
966.276
977.674
985.601
993.747
1000.35
1004.09
1002.44
1000.17
997.249
992.448
983.358
981.972
976.759
976.453
973.172
974.416
971.525
969.953
967.635
968.91
966.598
961.509
960.276
956.336
966.296
969.492
974.778
978.744
978.338
975.746
974.561
965.114
962.415
959.092
955.764
955.717
957.386
955.414
947.533
954.393
959.283
960.181
961.222
962.463
953.824
961.444
960.416
964.411
968.178
965.77
963.782
966.875
970.289
971.488
972.033
967.424
970.153
967.598
957.539
958.002
950.193
952.619
953.683
951.935
947.095
940.336
929.034
916.907
919.6
919.974
916.778
916.362
920.345
913.326
922.534
928.044
947.597
957.825
966.614
972.09
977.343
985.087
984.063
981.299
985.291
984.733
981.84
976.99
975.46
967.522
959.217
946.245
946.294
944.177
950.044
948.967
942.928
950.944
956.965
964.737
965.466
967.665
971.455
969.393
969.207
976.078
970.136
963.73
969.628
971.645
969.285
969.111
961.993
965.619
966.04
963.479
960.473
957.167
947.093
940.746
937.671
945.075
943.706
948.657
949.44
944.879
940.522
931.231
919.676
920.175
913.735
907.701
897.201
-5753.02
-5752.2
-5748.7
-5743.94
-5739.9
-5733.71
-5724.79
-5716.32
-5708.42
-5699.24
-5689.64
-5677.89
-5664.22
-5649.48
-5634.07
-5619.09
-5605.5
-5592.74
-5578.49
-5562.11
-5544.87
-5528.58
-5513.92
-5500.19
-5487.08
-5474.8
-5463.8
-5453.77
-5444.75
-5437.38
-5431.55
-5426.58
-5422.08
-5418.96
-5418.59
-5420.52
-5423.52
-5428.03
-5434.76
-5444
-5455.24
-5467.19
-5480.07
-5494.47
-5509.52
-5524.88
-5541.63
-5560.49
-5581.51
-5605.09
-5631.77
-5660.76
-5689.18
-5714.92
-5740.31
-5765.48
-5789.98
-5816.65
-5845.47
-5875.75
-5910.57
-5946.03
-5973.85
-5997.59
-6025.37
-6057.64
-6093.41
-6136.74
-6176.6
-6188.23
-6186.98
-6234
-6315.04
-6375.82
-6394.22
-6411.36
-6456.05
-6506.08
-6551.6
-6582.79
-6598.83
-6628.45
-6675.06
-6708.63
-6757.94
-6813.13
-6826
-6822.98
-6873.54
-6958.92
-7028.4
-7027.71
-7047.13
-7124.35
-7186.69
-7255.11
-7302.21
-7359.24
-7463.37
-7484.97
-7496.37
-7520.22
-7568.69
-7636.84
-7678.65
-7713.25
-7743.45
-7775.31
-7800.85
-7835.27
-7852.33
-7878.05
-7890.45
-7897.11
-7888.6
-7855.31
-7800.6
-7742.46
-7665.87
-7549.11
-7371.31
-7116.2
-6770.3
-6317.04
-5806.78
-5215.22
-4558.22
-3835.86
-3121.66
-2374.03
-1699.04
-1154.13
-684.709
-305.277
-1.06016
228.674
394.166
503.242
574.931
624.625
653.058
665.84
685.644
697.464
695.194
693.292
678.099
671.453
660.054
650.781
639.364
622.79
619.099
615.92
621.46
628.601
627.907
630.116
650.185
657.79
659.905
669.768
677.67
671.671
667.139
648.82
646.456
655.987
666.411
666.708
663.919
661.286
656.905
661.82
659.602
658.634
664.216
669.98
676.506
679.131
679.004
674.331
672.483
676.479
672.299
670.854
670.399
669.514
673.084
682.313
679.392
682.205
681.155
695.591
696.632
689.77
696.877
699.152
702.377
698.862
702.536
692.03
686.662
670.438
661.271
655.182
640.771
632.484
613.337
624.819
625.455
632.839
643.019
653.675
645.265
652.853
650.528
647.853
653.459
652.777
648.965
632.862
626.193
616.557
617.255
623.38
628.209
626.195
630.908
634.035
641.525
642.291
635.69
644.664
645.689
651.709
660.341
660.389
662.83
671.124
674.223
661.28
666.224
658.69
663.579
663.16
667.924
664.566
666.512
659.084
659.955
658.231
659.127
658.481
662.671
665.626
657.095
659.691
663.25
658.567
664.065
651.099
656.967
670.635
671.933
671.131
664.246
649.279
641.661
633.194
639.284
643.374
655.395
675.284
683.564
695.457
689.536
691.115
688.215
694.716
693.281
692.578
677.233
668.076
663.265
664.308
666.97
669.333
670.742
673.114
663.126
652.409
639.569
617.008
631.319
634.296
638.955
642.654
638.356
624.623
619.819
614.65
623.788
624.254
628.625
627.074
626.066
632.695
631.173
623.457
614.402
601.774
611.455
628.042
627.782
636.742
641.16
644.538
643.707
638.611
638.568
629.006
634.103
641.462
643.953
649.53
642.858
653.801
654.515
663.373
670.357
672.687
669.422
671.23
673.136
673.622
668.51
662.403
654.612
657.061
654.18
647.063
635.726
644.556
649.098
659.207
665.804
661.791
655.564
654.781
660.953
660.534
660.275
672.945
672.616
680.729
680.262
684.223
679.766
672.877
674.922
673.529
687.541
689.761
692.773
696.814
693.509
687.252
690.358
686.889
678.599
676.797
665.15
674.678
667.855
659.81
655.129
658.447
670.126
676.862
694.281
709.174
717.525
717.929
722.313
724.889
721.408
715.262
704.477
701.307
690.535
690.985
689.034
688.128
681.774
682.698
680.885
678.583
669.486
672.748
678.065
672.39
672.021
674.934
688.973
693.298
691.789
693.223
688.608
679.775
682.147
671.262
660.368
661.017
660.912
658.88
659.479
665.868
673.257
679.182
679.954
675.505
664.146
672.788
667.766
675.259
676.649
674.017
679.037
682.28
678.698
678.897
682.537
684.322
689.636
680.719
674.605
673.948
654.828
653.071
660.397
669.2
671.452
663.697
651.641
643.942
636.851
622.573
618.614
629.008
628.533
617.766
624.617
634.562
649.155
657.485
672.492
680.128
692.234
698.424
693.399
696.67
700.032
690.599
690.509
696.975
699.302
691.185
688.072
677.956
671.085
660.92
661.088
654.503
656.296
664.789
665.938
673.898
673.863
682.211
681.909
676.698
682.498
681.469
668.775
677.956
684.985
685.245
686.238
684.574
678.313
682.332
677.903
675.715
671.342
660.016
651.519
655.247
650.646
649.019
650.316
663.852
661.704
655.578
653.844
646.79
645.758
646.505
635.549
630.58
619.419
616.941
-5748.43
-5747.08
-5743.39
-5738
-5732.6
-5725.27
-5715.16
-5704.75
-5694.47
-5682.58
-5670.19
-5655.59
-5638.62
-5621.72
-5603.34
-5584.69
-5567.65
-5552.64
-5535.66
-5514.7
-5492.37
-5472.77
-5455.23
-5438.7
-5423.03
-5408.44
-5394.87
-5382.55
-5371.88
-5363.35
-5356.65
-5350.97
-5346.51
-5343.77
-5342.92
-5344.34
-5348.29
-5354.07
-5362.43
-5373.75
-5386.99
-5401.73
-5417.46
-5434.89
-5453.68
-5472.6
-5491.45
-5512.6
-5537.74
-5565.88
-5597.26
-5632.62
-5667.85
-5699.16
-5726.89
-5753.67
-5783.47
-5818.04
-5854.96
-5896.15
-5937.84
-5972.97
-6005.3
-6042.01
-6082
-6124.56
-6172.52
-6219.37
-6252.57
-6276.24
-6313.06
-6361.63
-6425.33
-6493.74
-6556.04
-6606.44
-6653.4
-6697.29
-6735.32
-6781.29
-6833.99
-6882.46
-6924.74
-6965.13
-7010.81
-7069.12
-7107.46
-7112.97
-7169.46
-7229.96
-7293.48
-7325.5
-7364.08
-7457.06
-7510.63
-7587.3
-7661.45
-7727.03
-7808.99
-7824.25
-7819.21
-7835.54
-7893.94
-8018.48
-8078.05
-8123.61
-8120.84
-8139.98
-8168.88
-8191.8
-8235.54
-8261.31
-8288.01
-8291.42
-8282.13
-8270.14
-8246.79
-8193.22
-8099.07
-7945.36
-7713.74
-7402.56
-7038.17
-6564.66
-6017.43
-5392.9
-4749.98
-3972.12
-3181.59
-2497.56
-1847.29
-1332.55
-891.216
-536.493
-259.659
-54.9971
91.6517
191.04
244.445
262.093
251.646
304.676
321.516
324.46
325.337
306.577
294.772
292.207
279.41
253.418
213.095
226.004
194.321
232.844
245.442
231.999
205.2
252.489
266.475
275.191
276.67
284.929
287.116
294.597
282.039
264.178
213.177
257.849
280.204
295.662
296.808
274.332
235.923
263.129
284.019
285.743
293.725
295.924
293.827
297.882
298.048
295.715
285.198
246.898
272.714
289.766
294.156
294.202
283.31
253.95
287.858
306.702
318.173
311.985
314.551
321.084
317.021
320.047
317.717
329.418
323.378
324.472
310.506
297.442
268.48
271.275
257.763
195.098
210.031
191.817
225.386
238.494
261.398
266.387
282.223
270.753
263.476
266.297
279.272
279.875
262.463
243.509
196.129
230.895
242.225
244.309
233.779
203.697
249.45
264.37
246.746
215.01
248.578
250.432
264.988
268.872
268.2
274.933
287.386
288.871
284.175
292.841
280.869
274.974
274.406
274.438
272.645
281.975
279.767
284.867
274.473
266.214
274.311
284.836
286.513
287.229
291.319
287.433
282.19
285.8
275.051
280.359
288.014
284.954
287.084
281.339
278.183
273.303
249.823
203.337
241.061
262.824
270.46
278.844
299.9
304.619
320.545
314.03
308.134
313.044
324.262
313.15
293.261
244.229
275.981
272.851
263.936
282.449
300.413
302.301
299.733
280.214
242.662
197.591
231.306
257.07
263.925
257.283
248.895
250.076
234.791
188.597
234.084
255.048
247.139
216.912
258.423
265.233
258.863
252.272
226.418
176.385
232.594
249.787
267.308
258.956
244.012
259.925
261.533
250.433
251.1
259.4
256.468
263.805
272.287
267.514
269.198
261.843
267.702
277.295
283.844
289.023
292.464
293.687
292.704
291.029
285.494
273.213
279.319
274.393
267.145
248.968
206.337
246.748
264.688
285.182
293.295
295.641
277.13
239.79
266.317
286.139
292.392
291.009
297.809
295.223
301.539
293.573
291.655
287.867
264.007
286.589
299.603
319.699
320.848
313.061
311.404
315.063
301.742
297.801
296.944
283.847
282.216
277.534
283.118
281.353
266.162
240.653
235.275
284.511
306.419
322.764
337.725
350.847
344.136
337.353
331.342
328.137
318.95
290.184
297.849
290.703
293.469
285.425
280.15
295.311
300.688
296.13
301.526
301.73
295.251
286.287
246.821
287.753
296.344
306.83
320.502
317.656
312.177
301.051
288.801
290.201
277.143
259.341
272.098
281.184
275.737
237.59
278.587
296.346
298.817
289.274
281.218
253.891
278.44
286.922
294.67
299.598
295.514
286.474
283.184
300.841
309.281
308.694
299.573
307.319
302.232
283.653
274.351
238.715
281.16
299.88
298.834
286.188
266.114
245.017
209.038
234.235
239.619
238.668
240.762
238.698
191.747
230.378
221.739
273.88
292.946
309.065
314.59
316.209
324.455
319.951
306.788
305.818
316.683
315.242
314.026
319.788
305.423
277.719
234.024
251.691
245.197
272.426
272.422
240.168
274.046
288.358
302.244
295.692
290.316
291.847
287.129
283.53
288.065
276.393
262.294
288.97
303.038
305.534
299.577
270.798
297.623
310.128
303.391
290.979
276.746
262.637
250.289
220.251
263.356
272.495
278.627
269.414
266.53
258.647
253.973
231.485
252.506
252.147
235.008
184.242
-5658.38
-5656.47
-5652.58
-5646.96
-5639.81
-5630.87
-5619.96
-5608.18
-5594.99
-5581.07
-5565.39
-5548.36
-5531
-5510.1
-5489.4
-5469.44
-5449.82
-5431.65
-5410.19
-5386.48
-5358.74
-5330.48
-5311.54
-5296.72
-5278.42
-5256.81
-5237.87
-5220.79
-5206.38
-5196.97
-5191.18
-5184.59
-5174.13
-5166.03
-5167.11
-5172.57
-5174.28
-5178.12
-5187.3
-5200.15
-5215.83
-5232.53
-5255.58
-5281.97
-5301.14
-5316.38
-5339.57
-5367.09
-5389.95
-5418.65
-5465.07
-5519.65
-5566.9
-5601.5
-5628.44
-5653.05
-5685.66
-5728.17
-5781.84
-5845.16
-5894.4
-5924.63
-5959.43
-6009.29
-6066.67
-6126.56
-6184.19
-6235.69
-6270.31
-6304.73
-6354.92
-6414.71
-6487.02
-6573.02
-6648.04
-6699.37
-6743.45
-6797.2
-6863.35
-6928.76
-6985.54
-7024.84
-7050.12
-7087.78
-7179.89
-7270.17
-7320.23
-7368.24
-7388.41
-7454.29
-7545.53
-7622.38
-7679.33
-7705.24
-7772.76
-7882.86
-7990.59
-8040.54
-8053.36
-8094.78
-8129.29
-8176.22
-8246.85
-8391.8
-8487.59
-8552.58
-8563.12
-8555.2
-8576.9
-8629.8
-8677.57
-8751.83
-8803.1
-8809.44
-8793.5
-8775.25
-8733.45
-8636.56
-8482.67
-8275.9
-8010.94
-7681.58
-7256.08
-6786.01
-6235.63
-5560.14
-4862.39
-4109.5
-3312.13
-2632.84
-2027.57
-1542.58
-1134.72
-813.292
-569.327
-387.514
-269.452
-209.691
-182.271
-148.768
-189.324
-134.05
-105.282
-96.1481
-109.471
-136.937
-190.808
-159.217
-163.156
-187.373
-249.288
-217.899
-264.082
-226.221
-210.059
-207.446
-256.091
-219.6
-173.82
-170
-206.946
-162.761
-144.446
-143.764
-159.32
-217.522
-250.834
-182.76
-153.213
-146.287
-156.247
-169.608
-216.448
-171.531
-171.624
-202.201
-170.126
-166.094
-148.808
-148.186
-157.184
-147.932
-168.09
-237.543
-176.413
-171.55
-180.451
-170.968
-177.137
-233.782
-163.801
-150.309
-163.474
-133.649
-133.647
-150.369
-142.371
-157.424
-128.326
-120.418
-109.325
-125.264
-149.259
-192.682
-236.01
-180.576
-198.57
-287.162
-289.277
-288.548
-223.36
-238.634
-183.164
-163.439
-189.509
-172.793
-214.83
-219.373
-163.958
-158.877
-178
-204.217
-282.455
-259.336
-237.158
-208.93
-201.707
-245.337
-186.163
-181.686
-194.837
-256.019
-213.053
-226.886
-200.82
-193.92
-182.624
-209.879
-180.922
-164.69
-163.404
-197.986
-180.387
-218.583
-180.769
-176.604
-173.686
-169.894
-161.275
-167.894
-176.189
-205.042
-176.675
-176.52
-164.407
-164.817
-204.104
-191.176
-175.795
-193.39
-189.386
-222.208
-212.514
-162.92
-145.939
-146.863
-156.453
-170.702
-189.565
-247.012
-210.703
-222.885
-204.949
-176.583
-152.044
-132.03
-143.074
-150.315
-185.97
-138.73
-131.739
-121.429
-147.428
-213.028
-177.081
-183.415
-216.71
-165.093
-144.478
-134.354
-140.021
-153.833
-180.093
-226.005
-195.016
-181.155
-179.037
-188.577
-193.529
-225.052
-210.667
-254.762
-194.383
-193.367
-180.858
-223.722
-177.948
-168.949
-182.029
-207.676
-211.186
-264.987
-224.205
-194.751
-215.988
-199.729
-248.968
-189.739
-195.301
-245.889
-213.477
-244.965
-247.282
-207.141
-212.8
-195.21
-226.31
-201.546
-222.905
-181.43
-172.14
-159.134
-163.669
-162.514
-147.513
-144.317
-162.01
-213.134
-205.502
-178.863
-181.98
-191.835
-239.643
-200.597
-224.155
-163.98
-143.256
-145.832
-161.214
-207.797
-167.036
-168.146
-196.073
-159.72
-154.617
-149.365
-149.626
-152.915
-154.263
-179.838
-235.3
-192.128
-153.569
-143.135
-132.74
-133.713
-149.22
-158.786
-157.928
-167.056
-167.627
-169.275
-220.951
-180.103
-188.218
-185.175
-203.795
-253.135
-249.85
-166.483
-124.031
-105.002
-103.005
-107.71
-105.297
-118.151
-114.882
-115.162
-142.164
-191.013
-169.506
-186.933
-160.776
-166.217
-221.698
-169.442
-155.063
-166.874
-187.777
-157.248
-142.888
-158.071
-214.236
-159.364
-135.776
-128.059
-127.968
-123.914
-143.137
-190.262
-160.711
-170.561
-191.786
-236.57
-192.202
-190.737
-183.897
-225.596
-155.324
-133.858
-135.656
-155.432
-205.474
-238.813
-187.945
-162.306
-161.768
-180.279
-161.726
-161.917
-205.945
-166.417
-149.771
-146.458
-145.55
-155.975
-160.027
-166.993
-203.775
-209.192
-158.129
-137.898
-136.671
-157.839
-202.945
-200.473
-263.71
-235.621
-250.407
-200.375
-195.056
-228.025
-269.042
-207.742
-239.527
-171.498
-151.772
-165.071
-140.512
-127.203
-144.752
-135.276
-141.447
-192.958
-153.303
-135.36
-137.126
-140.411
-145.644
-166.159
-246.396
-216.241
-247.115
-190.048
-182.441
-230.954
-178.345
-153.026
-150.405
-148.165
-160.439
-198.425
-175.855
-185.087
-218.088
-190.31
-224.113
-167.924
-152.666
-167.258
-160.438
-189.633
-142.23
-145.465
-159.261
-195.087
-229.918
-197.829
-210.852
-250.716
-192.406
-167.133
-169.397
-217.779
-186.651
-227.337
-194.151
-232.959
-188.493
-184.469
-207.574
-276.481
-5488.65
-5486.75
-5481.4
-5473.1
-5465.51
-5454.77
-5439.19
-5423.08
-5407.79
-5388.05
-5368.76
-5344.96
-5317.14
-5296.71
-5270.23
-5240.38
-5211.45
-5193.25
-5172.99
-5143.42
-5106.77
-5073.72
-5052.56
-5036.37
-5016.31
-4993.4
-4974.34
-4957.47
-4943.36
-4934
-4928.69
-4923.09
-4913.45
-4906.93
-4910.21
-4918.39
-4923.11
-4930.14
-4941.69
-4956.5
-4975.26
-4996.45
-5023.98
-5054.52
-5077.33
-5097.33
-5126.76
-5161.17
-5189.99
-5223.77
-5273.75
-5333.22
-5387.17
-5428.16
-5463.15
-5498.3
-5538.73
-5584.55
-5641.5
-5719.17
-5785.3
-5821.8
-5863.76
-5917.45
-5979.86
-6058.88
-6135.97
-6191.85
-6234.88
-6283.33
-6341.56
-6409.42
-6505.5
-6612.59
-6700.97
-6761.78
-6788.51
-6837.72
-6939.56
-7039.46
-7111.09
-7158.32
-7185.97
-7251.08
-7354.26
-7437.3
-7491.2
-7534.06
-7586.89
-7696.74
-7795.53
-7848.76
-7885.35
-7942.85
-8052.19
-8154.43
-8217.86
-8307.55
-8371.42
-8440.77
-8487.99
-8553.84
-8633.42
-8730.1
-8852.34
-8937.28
-9017.17
-9014.78
-9044.38
-9099.71
-9194.06
-9287.96
-9330.77
-9339.27
-9314.63
-9255.83
-9156.25
-9020.35
-8842.66
-8598.43
-8293.31
-7934.93
-7483.81
-6948.8
-6360.94
-5711.44
-4964.38
-4151.17
-3416
-2785.04
-2223.7
-1783.86
-1412.35
-1126.7
-910.735
-762.775
-669.519
-621.789
-648.837
-586.534
-564.973
-567.83
-571.372
-594.361
-596.945
-663.71
-684.491
-641.069
-666.195
-682.445
-642.32
-646.751
-664.975
-704.616
-683.408
-692.876
-682.87
-708.189
-658.196
-661.367
-709.283
-665.778
-671.711
-631.963
-645.904
-703.055
-663.705
-668.839
-661.188
-628.872
-624.572
-663.298
-649.28
-673.768
-648.255
-696.288
-657.515
-689.905
-657.648
-653.202
-690.121
-647.674
-641.386
-647.479
-693.791
-678.364
-721.939
-671.504
-659.293
-685.55
-651.972
-638.618
-681.539
-642.095
-648.427
-678.689
-657.461
-704.498
-644.795
-615.007
-615.366
-611.353
-633.973
-702.638
-719.392
-657.647
-642.318
-652.462
-731.548
-674.688
-677.237
-703.151
-656.798
-675.842
-702.223
-653.33
-677.298
-687.313
-625.262
-629.211
-693.09
-672.838
-694.86
-772.33
-759.883
-712.465
-686.857
-647.317
-646.092
-642.309
-683.921
-654.665
-665.51
-689.469
-687.182
-716.275
-692.234
-709.271
-675.448
-679.224
-708.958
-728.737
-682.57
-721.491
-682.597
-722.209
-732.107
-692.453
-679.767
-660.412
-682.007
-656.669
-660.543
-676.42
-659.173
-663.704
-727.8
-716.648
-683.477
-715.287
-699.291
-743.564
-741.174
-661.177
-654.303
-673.401
-672.754
-675.717
-657.085
-651.298
-681.167
-747.584
-745.838
-722.651
-659.998
-669.273
-637.48
-650.536
-700.935
-660.395
-617.226
-621.563
-625.522
-620.921
-643.092
-693.339
-695.264
-653.138
-623.48
-611.004
-614.562
-644.641
-691.679
-695.3
-697.191
-664.833
-666.609
-706.548
-710.042
-722.032
-664.449
-637.749
-668.947
-683.869
-634.017
-616.391
-619.797
-629.19
-672.499
-707.342
-685.855
-656.869
-697.857
-679.577
-726.71
-684.364
-720.239
-667.829
-681.463
-754.901
-711.351
-759.583
-751.955
-700.842
-733.369
-689.931
-744.44
-715.651
-735.615
-680.789
-707.522
-669.6
-695.203
-698.091
-682.909
-650.592
-649.867
-701.402
-718.668
-673.295
-698.211
-660.121
-648.553
-671.335
-714.821
-649.346
-635.493
-625.711
-645.639
-644.471
-650.964
-648.126
-703.194
-659.69
-657.905
-663.979
-651.674
-688.405
-665.305
-665.484
-714.104
-719.087
-651.652
-635.884
-627.43
-643.359
-677.758
-663.014
-681.334
-715.841
-684.183
-702.564
-746.224
-704.648
-721.07
-673.003
-703.319
-701.492
-642.737
-625.937
-613.957
-616.36
-616
-595.772
-607.867
-661.52
-656.726
-617.626
-616.302
-645.254
-644.671
-658.343
-652.756
-688.332
-734.658
-661.531
-644.578
-693.782
-713.351
-665.953
-656.544
-629.17
-619.979
-646.2
-666.662
-656.072
-638.928
-630.425
-642.414
-706.768
-688.52
-670.389
-705.008
-723.332
-691.547
-704.213
-642.95
-623.712
-639.809
-631.372
-635.781
-666.201
-719.964
-704.88
-697.828
-686.859
-672.648
-716.124
-665.677
-683.038
-697.887
-650.271
-645.432
-665.906
-690.253
-661.161
-670.657
-685.153
-714.27
-667.085
-619.968
-600.632
-610.518
-639.617
-677.961
-659.689
-662.182
-726.776
-752.044
-714.993
-692.636
-708.654
-644.115
-637.735
-620.215
-629.67
-648.094
-701.435
-638.266
-630.999
-666.357
-632.935
-670.237
-707.01
-655.541
-669.73
-682.552
-633.894
-632.665
-655.815
-649.049
-706.775
-705.81
-642.741
-625.758
-632.825
-674.73
-667.929
-653.449
-678.676
-683.941
-724.922
-695.835
-731.909
-755.022
-700.667
-686.925
-657.743
-646.344
-695.173
-622.302
-613.128
-609.806
-617.951
-661.846
-727.436
-760.48
-726.117
-732.992
-676.294
-662.146
-693.928
-665.213
-703.711
-673.016
-703.879
-654.52
-641.795
-641.312
-637.866
-641.61
-638.247
-5266.41
-5264.22
-5258.39
-5249.98
-5241.61
-5229.66
-5213.41
-5196.21
-5179.09
-5157.59
-5135.83
-5109.8
-5080.74
-5057.77
-5029.57
-4999.1
-4970.58
-4946.7
-4923.68
-4894.62
-4864.79
-4838.88
-4815.11
-4793.79
-4775.07
-4759
-4744.82
-4733.07
-4723
-4714.62
-4709.4
-4707.16
-4706.77
-4708.47
-4713.29
-4721.14
-4732.62
-4746.59
-4762.4
-4780.85
-4803.05
-4829.64
-4858.66
-4887.53
-4916.55
-4947.79
-4982.57
-5019.98
-5059.87
-5104.05
-5154.5
-5204.58
-5250.08
-5295.74
-5345.07
-5397.53
-5450.1
-5502.01
-5559.02
-5623.16
-5689.34
-5750.11
-5807.5
-5867.09
-5929.59
-5998.33
-6078.28
-6155.89
-6217.97
-6274.91
-6338.53
-6416.56
-6512.59
-6616.6
-6706.48
-6785.3
-6844.36
-6908.77
-6991.69
-7086.46
-7190.21
-7270.05
-7323.79
-7394.49
-7482.54
-7558.88
-7639.38
-7715.39
-7817.4
-7942.71
-8018.31
-8077.44
-8156.84
-8234.33
-8356.11
-8446.98
-8506.47
-8626.62
-8730.94
-8819.32
-8883.25
-8937.03
-9062.66
-9157.39
-9280.02
-9380.19
-9442.61
-9470.5
-9522.24
-9605.43
-9720.01
-9776.43
-9808.53
-9799.7
-9756.34
-9679.28
-9563.92
-9395.35
-9169.05
-8885.34
-8545.18
-8127.53
-7652.63
-7117.96
-6457.69
-5776.5
-5008.07
-4219.84
-3549.57
-2945.26
-2452.03
-2037.37
-1717.61
-1477.03
-1298.41
-1177.14
-1113.29
-1108.35
-1057.21
-1046.91
-1034.8
-1081.51
-1081.75
-1132.29
-1101.37
-1153.76
-1097.19
-1116.46
-1162.97
-1180.65
-1119.49
-1113.25
-1122.13
-1191.67
-1214.89
-1226.82
-1159.01
-1155.6
-1144.84
-1148.29
-1197.71
-1173.64
-1199.75
-1133.09
-1129.82
-1163.68
-1138.83
-1194.02
-1203.48
-1152.14
-1164.83
-1170.54
-1135.72
-1192.59
-1159.46
-1134.05
-1160.92
-1189.4
-1183.86
-1164.25
-1214.62
-1161.71
-1158.46
-1200.71
-1241.63
-1209.07
-1257.85
-1221.68
-1163.95
-1127.44
-1131
-1139.4
-1137.29
-1140.34
-1176.76
-1170.15
-1167.88
-1206.5
-1187.74
-1163.69
-1134.84
-1146.83
-1158.58
-1140.1
-1122.7
-1131.44
-1146.21
-1133.01
-1095.23
-1114.01
-1155.57
-1126.34
-1144.31
-1183.91
-1117.2
-1096.79
-1098.08
-1082.06
-1105
-1134.55
-1204.58
-1167.84
-1174.07
-1250.08
-1239.5
-1243.84
-1208.49
-1137.04
-1131.86
-1161.15
-1189.98
-1137.12
-1160.62
-1203.25
-1214.43
-1228.71
-1181.75
-1172.35
-1220.38
-1231.41
-1241.31
-1177.23
-1158.6
-1143
-1182.07
-1261.96
-1286.02
-1257.88
-1233.07
-1190.9
-1195.57
-1160.21
-1149.73
-1181.69
-1176.21
-1146.58
-1149.85
-1178.52
-1169.72
-1184.44
-1195.02
-1171.9
-1144.83
-1165.77
-1165.47
-1220.86
-1220.29
-1222.16
-1158.61
-1128.13
-1157.24
-1227.4
-1253.85
-1248.88
-1186.89
-1234.47
-1209.69
-1206.26
-1180.05
-1214.28
-1174.75
-1136.02
-1157.14
-1116.04
-1138.96
-1203.15
-1164.75
-1176.33
-1158.36
-1141.47
-1141.15
-1161.07
-1235.92
-1200.84
-1229.49
-1180.79
-1177.36
-1209.79
-1210.16
-1154.26
-1143.79
-1131.96
-1175.73
-1121.92
-1099.03
-1091.47
-1123.91
-1118.62
-1135.35
-1159.79
-1167
-1109.25
-1117.69
-1159.3
-1132.93
-1172.71
-1122.36
-1144.49
-1190.01
-1249.35
-1177
-1149.79
-1152.17
-1203.16
-1156.01
-1176.53
-1177.09
-1230.68
-1222.39
-1173.6
-1209.98
-1175.48
-1216.3
-1222.18
-1240.21
-1168.76
-1145.72
-1142.31
-1141.61
-1177.2
-1212.18
-1185.59
-1153.98
-1177.56
-1131.03
-1156.43
-1170.76
-1141.79
-1176.9
-1134.33
-1169.77
-1163.89
-1120.54
-1138.87
-1170.07
-1204.77
-1167.56
-1218.41
-1207.61
-1190.83
-1183.93
-1219.38
-1178.81
-1203.35
-1166.38
-1163.32
-1209.27
-1226.88
-1242.44
-1256.62
-1231.95
-1229.45
-1168.96
-1206.87
-1214.24
-1184.03
-1155.34
-1131.58
-1125.46
-1137.74
-1136.81