/*--------------------------------*- C++ -*----------------------------------*\
| =========                 |                                                 |
| \\      /  F ield         | OpenFOAM: The Open Source CFD Toolbox           |
|  \\    /   O peration     | Version:  v2012                                 |
|   \\  /    A nd           | Website:  www.openfoam.com                      |
|    \\/     M anipulation  |                                                 |
\*---------------------------------------------------------------------------*/
FoamFile
{
    version     2.0;
    format      ascii;
    class       volScalarField;
    location    "400";
    object      p;
}
// * * * * * * * * * * * * * * * * * * * * * * * * * * * * * * * * * * * * * //

dimensions      [1 -1 -2 0 0 0 0];


internalField   nonuniform List<scalar> 
65536
(
157863
157863
157863
157863
157862
157861
157860
157859
157858
157856
157854
157852
157850
157848
157845
157842
157838
157834
157829
157824
157819
157813
157807
157800
157793
157785
157777
157768
157759
157749
157738
157727
157716
157704
157692
157679
157665
157652
157638
157623
157609
157594
157579
157564
157549
157534
157518
157503
157488
157473
157458
157444
157430
157416
157403
157390
157378
157366
157355
157344
157334
157325
157316
157309
157301
157295
157289
157284
157281
157277
157276
157274
157272
157273
157274
157276
157279
157282
157286
157291
157295
157301
157308
157313
157320
157328
157335
157346
157352
157362
157372
157380
157392
157400
157410
157421
157431
157440
157452
157463
157472
157483
157492
157499
157508
157519
157528
157537
157546
157552
157558
157566
157574
157582
157590
157596
157603
157611
157619
157628
157637
157647
157656
157666
157675
157684
157694
157704
157714
157723
157727
157726
157722
157715
157706
157697
157687
157678
157669
157661
157653
157645
157638
157632
157626
157620
157614
157609
157603
157598
157594
157589
157585
157580
157576
157572
157569
157565
157561
157557
157553
157550
157546
157543
157540
157538
157535
157532
157530
157527
157525
157523
157521
157519
157517
157515
157513
157512
157510
157508
157507
157506
157504
157503
157502
157501
157501
157500
157499
157498
157497
157497
157496
157495
157494
157494
157493
157492
157492
157491
157490
157490
157489
157489
157488
157488
157487
157487
157486
157486
157485
157484
157484
157483
157482
157482
157482
157481
157481
157480
157480
157480
157480
157479
157479
157479
157479
157479
157479
157479
157479
157479
157479
157479
157479
157479
157480
157480
157480
157480
157480
157480
157480
157480
157480
157479
157479
157479
157479
157479
157479
157479
157479
157478
157478
157478
157478
157478
157477
157477
157477
157477
157477
157477
157477
157477
157477
157477
157477
157477
157477
157478
157478
157478
157478
157478
157479
157479
157479
157479
157479
157479
157479
157479
157479
157479
157479
157479
157479
157479
157479
157479
157479
157479
157479
157479
157479
157479
157479
157480
157480
157480
157480
157480
157480
157480
157480
157480
157480
157480
157479
157479
157479
157479
157479
157479
157479
157479
157479
157479
157479
157479
157479
157479
157479
157479
157479
157479
157479
157479
157479
157479
157479
157479
157479
157479
157479
157478
157478
157478
157478
157478
157478
157478
157478
157478
157478
157478
157478
157477
157477
157477
157477
157477
157477
157477
157478
157478
157478
157479
157479
157480
157480
157480
157481
157481
157481
157481
157481
157481
157481
157482
157482
157482
157482
157482
157483
157483
157483
157483
157484
157484
157484
157485
157485
157486
157486
157486
157487
157487
157487
157487
157487
157487
157487
157487
157487
157487
157487
157486
157486
157486
157486
157486
157486
157486
157486
157486
157486
157486
157486
157486
157486
157487
157487
157487
157487
157487
157488
157488
157489
157489
157489
157490
157490
157490
157491
157491
157491
157491
157491
157491
157492
157492
157492
157492
157492
157492
157492
157492
157492
157491
157491
157491
157490
157490
157490
157489
157489
157489
157489
157489
157489
157489
157489
157490
157490
157490
157490
157490
157490
157491
157491
157491
157491
157491
157491
157491
157491
157491
157492
157492
157492
157492
157493
157493
157493
157493
157492
157492
157492
157492
157492
157492
157491
157491
157491
157490
157490
157490
157490
157490
157489
157490
157490
157490
157490
157490
157491
157491
157491
157491
157491
157491
157491
157491
157490
157490
157490
157490
157490
157489
156946
156946
156946
156945
156945
156944
156943
156942
156940
156939
156937
156935
156933
156930
156928
156924
156921
156917
156912
156907
156902
156897
156890
156884
156876
156869
156860
156852
156842
156832
156822
156811
156800
156788
156775
156762
156749
156736
156722
156707
156693
156678
156663
156648
156633
156618
156603
156588
156573
156558
156543
156529
156515
156501
156488
156475
156463
156451
156440
156429
156419
156410
156401
156393
156386
156379
156373
156368
156365
156361
156359
156356
156355
156357
156358
156359
156362
156365
156369
156374
156379
156383
156391
156396
156402
156410
156417
156425
156431
156440
156451
156459
156469
156477
156488
156501
156510
156520
156531
156542
156551
156560
156568
156574
156584
156597
156607
156616
156624
156630
156636
156644
156653
156661
156668
156674
156681
156689
156698
156707
156716
156727
156737
156749
156759
156769
156779
156791
156802
156812
156818
156819
156817
156811
156804
156796
156788
156779
156771
156763
156756
156748
156742
156735
156729
156723
156718
156713
156707
156702
156698
156693
156689
156685
156681
156677
156673
156669
156665
156661
156658
156654
156651
156648
156645
156642
156640
156637
156634
156632
156630
156628
156626
156624
156622
156620
156618
156616
156615
156613
156612
156611
156610
156609
156607
156607
156606
156605
156604
156603
156603
156602
156601
156600
156600
156599
156598
156597
156596
156596
156595
156595
156594
156594
156593
156593
156592
156592
156591
156591
156590
156589
156589
156588
156588
156587
156587
156586
156586
156586
156585
156585
156585
156585
156584
156584
156584
156584
156584
156584
156584
156584
156584
156584
156584
156584
156584
156585
156585
156585
156585
156585
156585
156585
156585
156584
156584
156584
156584
156584
156584
156584
156584
156584
156583
156583
156583
156583
156582
156582
156582
156582
156582
156582
156582
156582
156582
156582
156582
156582
156582
156583
156583
156583
156583
156584
156584
156584
156584
156584
156584
156585
156584
156584
156584
156584
156584
156584
156584
156584
156584
156584
156584
156584
156584
156584
156584
156585
156584
156585
156585
156585
156585
156585
156585
156585
156585
156585
156585
156585
156584
156584
156584
156584
156584
156584
156584
156584
156584
156584
156584
156584
156584
156584
156584
156584
156584
156584
156584
156584
156584
156584
156584
156584
156584
156584
156584
156584
156584
156584
156584
156583
156583
156583
156583
156583
156583
156583
156583
156583
156583
156582
156582
156582
156582
156583
156583
156583
156584
156584
156585
156585
156585
156586
156586
156586
156586
156587
156586
156587
156587
156587
156587
156587
156587
156588
156588
156588
156588
156589
156589
156589
156590
156590
156591
156591
156591
156592
156592
156592
156592
156592
156592
156592
156592
156592
156592
156592
156592
156591
156591
156591
156591
156591
156591
156591
156591
156591
156591
156591
156591
156591
156591
156592
156592
156592
156592
156593
156593
156593
156594
156594
156595
156595
156595
156596
156596
156596
156596
156596
156596
156596
156597
156597
156597
156597
156597
156597
156597
156597
156597
156597
156596
156596
156596
156595
156595
156594
156594
156594
156594
156594
156594
156594
156595
156595
156595
156595
156595
156596
156596
156596
156596
156596
156596
156596
156596
156596
156597
156597
156597
156597
156597
156597
156597
156597
156598
156597
156597
156597
156597
156597
156597
156597
156597
156596
156596
156596
156595
156595
156595
156595
156595
156595
156595
156595
156595
156595
156596
156596
156596
156596
156596
156596
156596
156596
156595
156595
156595
156595
156595
156594
156033
156033
156033
156032
156032
156031
156030
156029
156028
156026
156024
156022
156020
156018
156015
156012
156008
156004
156000
155995
155990
155984
155978
155972
155964
155957
155948
155940
155930
155921
155910
155899
155888
155876
155864
155851
155838
155824
155810
155796
155782
155767
155752
155737
155722
155707
155692
155677
155662
155647
155632
155618
155604
155590
155577
155564
155552
155540
155528
155518
155507
155498
155490
155481
155474
155468
155462
155457
155453
155450
155448
155445
155445
155445
155446
155448
155450
155453
155457
155461
155466
155471
155478
155484
155491
155499
155507
155516
155522
155531
155541
155550
155560
155567
155578
155588
155596
155605
155616
155627
155637
155645
155651
155658
155669
155681
155691
155700
155707
155712
155718
155726
155736
155744
155751
155758
155764
155772
155780
155789
155800
155811
155821
155834
155847
155856
155868
155881
155892
155903
155910
155913
155913
155909
155904
155897
155890
155883
155876
155868
155861
155855
155848
155842
155836
155831
155826
155820
155815
155810
155806
155801
155797
155793
155789
155785
155781
155777
155774
155770
155766
155763
155760
155757
155754
155751
155748
155746
155743
155741
155739
155737
155735
155733
155731
155729
155728
155726
155724
155723
155722
155721
155719
155718
155717
155716
155715
155715
155714
155713
155712
155711
155711
155710
155709
155708
155708
155707
155706
155705
155705
155704
155704
155703
155703
155702
155702
155702
155701
155700
155700
155699
155698
155698
155697
155697
155696
155696
155695
155695
155695
155695
155694
155694
155694
155694
155694
155693
155693
155693
155693
155693
155693
155693
155693
155694
155694
155694
155694
155694
155694
155695
155694
155694
155694
155694
155694
155694
155694
155694
155693
155693
155693
155693
155693
155693
155693
155693
155693
155692
155692
155692
155692
155692
155692
155692
155692
155692
155692
155692
155692
155692
155692
155692
155693
155693
155693
155694
155694
155694
155694
155694
155694
155694
155694
155694
155694
155694
155694
155694
155694
155694
155694
155694
155694
155694
155694
155694
155694
155694
155694
155694
155694
155694
155694
155694
155694
155694
155694
155694
155694
155694
155694
155694
155694
155694
155694
155694
155694
155694
155694
155694
155694
155694
155694
155694
155694
155694
155694
155694
155694
155694
155694
155694
155694
155694
155693
155693
155693
155693
155693
155693
155693
155693
155693
155693
155693
155693
155693
155693
155692
155692
155692
155692
155692
155692
155693
155693
155694
155694
155694
155694
155695
155695
155695
155695
155696
155696
155696
155696
155696
155697
155697
155697
155697
155698
155698
155698
155698
155698
155699
155699
155699
155700
155700
155700
155701
155701
155701
155702
155702
155702
155702
155702
155702
155702
155702
155702
155702
155701
155701
155701
155701
155701
155701
155701
155701
155702
155701
155701
155701
155701
155702
155702
155702
155702
155702
155702
155703
155703
155703
155704
155704
155704
155705
155705
155705
155705
155705
155705
155706
155706
155706
155706
155706
155706
155706
155706
155707
155707
155706
155706
155706
155705
155705
155705
155704
155704
155704
155704
155704
155704
155704
155704
155704
155704
155705
155705
155705
155705
155705
155706
155706
155706
155706
155706
155706
155706
155706
155706
155706
155706
155706
155706
155707
155707
155707
155707
155707
155707
155707
155706
155706
155706
155706
155706
155706
155705
155705
155705
155705
155704
155704
155704
155705
155705
155705
155705
155705
155705
155706
155706
155706
155706
155706
155705
155705
155705
155704
155704
155704
155704
155125
155125
155124
155124
155124
155123
155122
155121
155120
155118
155116
155115
155112
155110
155107
155104
155100
155097
155092
155088
155083
155077
155071
155064
155057
155049
155041
155033
155023
155013
155003
154992
154981
154969
154957
154944
154931
154917
154904
154890
154875
154861
154846
154831
154816
154800
154785
154770
154755
154740
154725
154711
154697
154683
154670
154657
154644
154633
154621
154611
154600
154591
154582
154574
154567
154560
154554
154549
154545
154542
154539
154537
154537
154537
154538
154539
154542
154545
154548
154553
154558
154562
154569
154574
154581
154589
154596
154605
154612
154621
154631
154640
154648
154656
154667
154676
154684
154694
154704
154715
154725
154734
154739
154746
154756
154768
154779
154787
154795
154800
154805
154814
154824
154832
154838
154844
154851
154858
154867
154876
154886
154899
154910
154921
154937
154950
154960
154972
154985
154997
155006
155010
155012
155010
155006
155001
154995
154989
154983
154977
154970
154964
154958
154953
154947
154942
154937
154932
154927
154922
154918
154913
154909
154905
154901
154897
154893
154890
154886
154882
154879
154876
154872
154869
154867
154864
154861
154859
154856
154854
154852
154849
154847
154845
154844
154842
154841
154839
154838
154837
154835
154834
154833
154832
154831
154830
154829
154828
154827
154826
154825
154825
154824
154823
154823
154822
154821
154820
154819
154819
154818
154817
154817
154816
154816
154815
154815
154815
154814
154814
154814
154813
154812
154812
154811
154811
154810
154810
154809
154809
154809
154809
154808
154808
154808
154807
154807
154807
154807
154807
154807
154807
154806
154807
154806
154807
154807
154807
154807
154807
154807
154807
154808
154808
154808
154807
154807
154807
154807
154807
154807
154807
154807
154807
154806
154806
154806
154806
154806
154806
154806
154806
154806
154806
154806
154806
154806
154805
154805
154805
154806
154805
154806
154806
154806
154807
154807
154807
154808
154807
154808
154807
154807
154807
154807
154807
154808
154807
154807
154807
154807
154807
154807
154808
154807
154807
154807
154808
154807
154807
154807
154807
154808
154808
154808
154808
154807
154808
154808
154808
154807
154807
154807
154807
154807
154807
154808
154808
154808
154808
154808
154807
154808
154807
154808
154808
154808
154808
154808
154808
154808
154807
154807
154807
154807
154807
154807
154807
154807
154807
154807
154807
154807
154807
154807
154806
154806
154806
154806
154806
154806
154806
154806
154806
154806
154807
154807
154808
154808
154808
154808
154808
154809
154809
154809
154809
154810
154810
154810
154810
154810
154810
154810
154811
154811
154811
154812
154812
154812
154813
154813
154813
154813
154814
154814
154815
154815
154815
154815
154815
154815
154816
154816
154816
154816
154816
154816
154815
154815
154815
154815
154815
154815
154815
154815
154815
154815
154815
154815
154815
154815
154815
154815
154816
154816
154816
154816
154816
154816
154817
154817
154818
154818
154818
154818
154819
154819
154819
154819
154819
154819
154819
154819
154820
154820
154820
154820
154820
154820
154820
154820
154819
154819
154819
154819
154819
154818
154818
154817
154817
154817
154817
154818
154818
154818
154818
154819
154819
154819
154819
154819
154820
154820
154820
154820
154820
154820
154820
154820
154820
154820
154820
154820
154820
154820
154820
154820
154820
154819
154820
154820
154820
154820
154820
154820
154820
154820
154819
154819
154819
154818
154818
154818
154818
154818
154818
154818
154819
154819
154819
154819
154819
154819
154820
154819
154819
154819
154818
154818
154818
154818
154817
154222
154222
154221
154221
154220
154220
154219
154218
154217
154215
154214
154212
154210
154207
154204
154201
154198
154194
154190
154185
154180
154175
154169
154162
154155
154147
154139
154131
154121
154111
154101
154090
154079
154067
154055
154042
154029
154016
154002
153988
153974
153959
153944
153929
153914
153899
153884
153868
153853
153838
153824
153809
153795
153781
153768
153755
153742
153730
153719
153708
153698
153688
153679
153671
153664
153657
153651
153646
153642
153638
153636
153634
153634
153634
153634
153636
153638
153642
153645
153650
153654
153659
153665
153671
153678
153685
153693
153701
153709
153719
153726
153735
153745
153753
153764
153772
153781
153791
153801
153811
153821
153829
153835
153845
153854
153863
153873
153881
153887
153894
153901
153908
153917
153924
153930
153936
153942
153949
153957
153967
153977
153989
154005
154017
154025
154043
154060
154070
154081
154094
154104
154110
154113
154112
154111
154107
154103
154098
154093
154087
154082
154076
154071
154066
154061
154056
154051
154046
154042
154037
154033
154028
154024
154020
154016
154013
154009
154006
154002
153998
153995
153992
153988
153986
153983
153981
153978
153975
153973
153971
153968
153966
153964
153962
153960
153959
153958
153956
153955
153954
153953
153952
153951
153950
153948
153947
153947
153946
153945
153944
153943
153942
153942
153941
153940
153939
153938
153937
153936
153936
153935
153935
153934
153933
153933
153933
153932
153932
153932
153931
153931
153930
153930
153929
153928
153928
153928
153927
153926
153926
153926
153926
153926
153926
153926
153925
153925
153925
153925
153924
153924
153924
153924
153924
153924
153924
153924
153924
153924
153925
153925
153925
153925
153925
153924
153925
153924
153925
153924
153924
153924
153924
153924
153924
153924
153924
153924
153924
153924
153924
153923
153924
153923
153923
153923
153923
153923
153923
153923
153923
153923
153923
153923
153923
153923
153924
153924
153924
153925
153925
153925
153925
153925
153924
153925
153924
153925
153924
153924
153924
153924
153925
153925
153925
153925
153925
153925
153925
153925
153924
153925
153925
153925
153924
153925
153925
153925
153925
153925
153925
153924
153924
153924
153925
153925
153925
153925
153925
153925
153925
153925
153925
153925
153925
153925
153925
153925
153925
153925
153925
153925
153925
153925
153925
153925
153925
153925
153925
153924
153925
153925
153925
153925
153925
153925
153925
153925
153925
153925
153924
153924
153924
153924
153924
153925
153925
153925
153925
153925
153926
153926
153925
153925
153926
153927
153927
153928
153928
153928
153928
153928
153928
153928
153928
153929
153929
153929
153930
153930
153930
153930
153931
153931
153931
153931
153932
153932
153932
153932
153933
153933
153933
153933
153933
153933
153933
153933
153933
153933
153933
153933
153933
153933
153933
153933
153933
153933
153933
153933
153933
153933
153933
153933
153934
153934
153933
153934
153934
153934
153934
153935
153935
153935
153936
153936
153936
153936
153936
153936
153936
153937
153937
153937
153937
153937
153937
153937
153937
153937
153937
153937
153937
153937
153937
153937
153936
153936
153935
153935
153935
153935
153935
153935
153935
153936
153936
153936
153937
153937
153937
153937
153937
153937
153937
153938
153938
153937
153938
153937
153937
153937
153937
153937
153937
153937
153937
153937
153937
153937
153937
153937
153937
153937
153937
153937
153937
153937
153937
153937
153936
153936
153936
153936
153936
153936
153936
153936
153936
153937
153936
153937
153937
153937
153937
153937
153936
153936
153935
153935
153935
153935
153935
153324
153324
153324
153323
153323
153322
153321
153320
153319
153318
153316
153314
153312
153310
153307
153304
153301
153297
153293
153288
153283
153278
153272
153265
153258
153251
153243
153234
153225
153215
153205
153194
153182
153171
153158
153146
153133
153119
153105
153092
153077
153062
153048
153032
153017
153002
152987
152972
152956
152941
152927
152912
152898
152884
152871
152857
152845
152832
152821
152810
152800
152790
152781
152772
152765
152758
152752
152747
152742
152739
152737
152735
152734
152734
152735
152736
152739
152742
152745
152749
152754
152759
152765
152771
152778
152785
152792
152799
152808
152816
152824
152834
152843
152851
152862
152869
152878
152889
152898
152908
152918
152925
152934
152942
152950
152959
152969
152977
152984
152989
152996
153004
153012
153019
153025
153031
153038
153046
153053
153063
153075
153086
153098
153116
153129
153138
153154
153171
153184
153197
153207
153213
153218
153219
153219
153217
153214
153210
153206
153201
153196
153192
153187
153182
153178
153173
153168
153164
153160
153155
153151
153147
153143
153139
153135
153131
153128
153125
153121
153118
153115
153111
153108
153105
153103
153100
153098
153095
153093
153091
153088
153087
153085
153083
153081
153080
153078
153077
153076
153075
153074
153073
153072
153071
153069
153069
153068
153067
153066
153065
153064
153063
153062
153062
153061
153060
153059
153059
153057
153057
153056
153055
153055
153054
153054
153053
153053
153053
153052
153052
153052
153051
153051
153050
153050
153049
153049
153048
153048
153048
153048
153047
153047
153047
153047
153046
153046
153046
153046
153046
153046
153045
153045
153045
153045
153045
153045
153045
153045
153045
153045
153045
153046
153046
153046
153046
153045
153045
153045
153045
153045
153045
153045
153044
153045
153045
153045
153045
153045
153045
153044
153045
153044
153045
153044
153044
153045
153044
153044
153044
153044
153044
153044
153044
153045
153045
153045
153046
153046
153046
153046
153046
153046
153045
153045
153045
153045
153046
153045
153045
153045
153045
153045
153045
153045
153045
153045
153045
153045
153045
153046
153045
153046
153045
153045
153046
153046
153045
153045
153045
153045
153045
153045
153046
153046
153046
153047
153047
153047
153047
153046
153047
153046
153046
153046
153046
153046
153046
153046
153046
153046
153046
153046
153046
153046
153046
153046
153045
153046
153046
153047
153047
153046
153046
153046
153046
153046
153046
153046
153046
153046
153046
153046
153046
153046
153046
153046
153047
153047
153047
153047
153047
153047
153047
153048
153048
153049
153048
153049
153049
153049
153049
153050
153050
153050
153051
153051
153051
153052
153052
153053
153052
153052
153053
153053
153053
153053
153053
153053
153053
153053
153053
153054
153054
153054
153054
153055
153055
153054
153055
153054
153054
153054
153055
153055
153054
153054
153055
153055
153055
153055
153055
153056
153055
153055
153055
153055
153055
153055
153055
153056
153056
153056
153057
153057
153058
153057
153057
153057
153057
153057
153058
153058
153058
153058
153058
153058
153058
153057
153058
153058
153058
153058
153058
153057
153057
153057
153057
153057
153057
153057
153057
153057
153057
153057
153058
153058
153058
153058
153058
153058
153058
153059
153059
153059
153059
153059
153059
153058
153058
153058
153058
153058
153058
153058
153058
153058
153058
153058
153058
153058
153057
153058
153058
153058
153058
153058
153057
153057
153057
153057
153057
153057
153057
153057
153057
153057
153057
153058
153057
153058
153058
153058
153058
153058
153058
153057
153057
153057
153057
153056
153056
152432
152432
152431
152431
152431
152430
152429
152428
152427
152426
152424
152422
152420
152418
152415
152412
152409
152406
152402
152397
152392
152387
152381
152374
152367
152360
152351
152343
152334
152324
152314
152303
152291
152279
152267
152255
152242
152228
152214
152200
152186
152171
152156
152141
152126
152110
152095
152080
152064
152049
152035
152020
152006
151992
151978
151965
151952
151940
151928
151917
151906
151896
151887
151879
151871
151864
151858
151853
151849
151845
151842
151841
151840
151840
151840
151841
151844
151847
151849
151854
151859
151864
151870
151876
151883
151890
151898
151905
151913
151921
151928
151937
151947
151955
151964
151972
151982
151992
152000
152010
152020
152027
152037
152045
152053
152062
152071
152078
152085
152091
152098
152105
152112
152119
152125
152131
152138
152146
152155
152164
152175
152190
152202
152213
152230
152245
152259
152275
152290
152302
152314
152321
152326
152328
152330
152330
152328
152326
152322
152318
152314
152310
152306
152302
152297
152293
152288
152285
152280
152277
152273
152269
152265
152261
152257
152254
152250
152247
152243
152240
152237
152234
152232
152229
152226
152224
152222
152219
152217
152215
152213
152211
152209
152207
152205
152204
152202
152202
152201
152199
152198
152197
152196
152196
152194
152193
152192
152191
152190
152189
152188
152188
152187
152186
152185
152185
152184
152184
152182
152181
152180
152180
152179
152179
152177
152177
152177
152177
152177
152176
152176
152176
152175
152175
152174
152174
152173
152173
152173
152173
152173
152172
152172
152171
152171
152171
152171
152170
152170
152170
152171
152171
152171
152171
152170
152170
152170
152170
152170
152170
152169
152169
152170
152170
152170
152170
152171
152170
152170
152170
152170
152170
152169
152169
152169
152169
152169
152169
152169
152169
152169
152169
152169
152169
152168
152168
152169
152169
152169
152169
152169
152170
152169
152169
152169
152169
152170
152170
152170
152171
152170
152170
152170
152170
152170
152170
152170
152170
152170
152170
152170
152170
152170
152170
152169
152169
152169
152169
152169
152170
152170
152170
152170
152170
152170
152170
152170
152170
152169
152169
152169
152170
152170
152171
152171
152171
152171
152172
152172
152171
152171
152171
152171
152171
152171
152171
152171
152171
152171
152171
152171
152171
152170
152171
152171
152171
152170
152170
152170
152171
152172
152171
152172
152171
152171
152171
152171
152171
152171
152171
152171
152171
152170
152171
152172
152172
152171
152172
152172
152172
152171
152172
152172
152172
152172
152173
152173
152173
152174
152174
152174
152173
152174
152174
152175
152176
152176
152176
152177
152177
152177
152177
152177
152178
152177
152178
152177
152177
152177
152177
152178
152178
152178
152178
152179
152179
152179
152179
152179
152180
152179
152180
152180
152180
152179
152180
152179
152178
152179
152179
152179
152179
152179
152179
152180
152180
152180
152180
152180
152180
152180
152181
152181
152181
152181
152182
152181
152182
152182
152181
152182
152182
152182
152182
152182
152183
152182
152183
152183
152182
152183
152183
152182
152183
152182
152182
152182
152182
152181
152182
152182
152182
152182
152182
152182
152182
152183
152183
152183
152183
152183
152183
152183
152183
152184
152183
152183
152183
152183
152182
152182
152182
152182
152182
152182
152182
152182
152181
152182
152182
152182
152182
152182
152182
152182
152181
152181
152182
152182
152182
152182
152182
152182
152182
152182
152182
152182
152182
152183
152183
152183
152183
152183
152182
152182
152182
152182
152182
152182
152182
152182
152182
151545
151545
151545
151544
151544
151543
151542
151541
151540
151539
151538
151536
151534
151532
151529
151526
151523
151519
151515
151511
151506
151500
151495
151488
151481
151474
151465
151457
151448
151438
151428
151417
151405
151393
151381
151369
151355
151342
151328
151314
151299
151284
151269
151254
151239
151223
151208
151192
151177
151162
151147
151132
151118
151104
151090
151077
151064
151051
151039
151028
151017
151007
150998
150989
150981
150975
150968
150963
150958
150955
150952
150950
150949
150949
150949
150950
150953
150955
150957
150962
150967
150972
150977
150983
150991
150998
151005
151012
151021
151028
151037
151046
151055
151063
151072
151080
151090
151099
151107
151117
151126
151135
151143
151151
151158
151167
151175
151182
151190
151196
151203
151209
151215
151222
151228
151234
151241
151249
151258
151269
151280
151293
151309
151323
151335
151351
151368
151384
151400
151413
151424
151433
151440
151443
151445
151446
151445
151444
151441
151438
151435
151431
151428
151424
151420
151415
151412
151408
151404
151400
151397
151394
151390
151386
151383
151379
151376
151372
151369
151366
151363
151361
151358
151356
151353
151351
151349
151347
151345
151342
151340
151338
151337
151335
151333
151331
151330
151329
151328
151327
151326
151325
151324
151323
151322
151321
151320
151319
151318
151317
151316
151315
151314
151313
151312
151311
151311
151309
151310
151309
151309
151308
151308
151308
151306
151306
151306
151305
151305
151304
151304
151303
151303
151303
151303
151302
151301
151301
151301
151300
151300
151300
151300
151299
151299
151299
151299
151299
151299
151299
151299
151299
151299
151299
151299
151299
151298
151299
151298
151298
151298
151299
151299
151298
151298
151298
151298
151298
151299
151298
151298
151297
151297
151298
151297
151297
151298
151297
151298
151297
151298
151297
151298
151297
151297
151297
151297
151297
151297
151297
151297
151297
151297
151297
151297
151297
151297
151298
151298
151298
151298
151298
151298
151298
151298
151298
151298
151298
151299
151298
151298
151298
151298
151298
151298
151298
151298
151298
151298
151298
151298
151298
151298
151298
151298
151298
151298
151298
151298
151298
151299
151299
151299
151299
151300
151300
151300
151300
151300
151300
151300
151300
151300
151300
151299
151300
151299
151299
151299
151299
151298
151299
151299
151300
151300
151300
151300
151300
151300
151300
151300
151300
151300
151300
151300
151300
151300
151300
151300
151300
151300
151300
151300
151301
151301
151301
151301
151300
151300
151300
151299
151300
151300
151302
151301
151301
151301
151301
151301
151301
151302
151303
151303
151303
151304
151305
151306
151305
151305
151306
151305
151305
151305
151306
151305
151305
151305
151305
151305
151305
151305
151306
151306
151306
151306
151307
151307
151306
151307
151308
151309
151309
151308
151309
151308
151309
151308
151308
151308
151308
151308
151307
151308
151307
151308
151308
151308
151308
151308
151308
151308
151309
151309
151309
151309
151309
151310
151310
151310
151309
151310
151310
151310
151310
151310
151310
151311
151311
151311
151311
151311
151311
151311
151311
151310
151310
151310
151310
151310
151311
151310
151310
151311
151311
151311
151311
151311
151311
151311
151311
151312
151312
151312
151311
151311
151311
151311
151311
151310
151310
151310
151310
151310
151310
151310
151310
151309
151310
151310
151311
151310
151310
151310
151310
151310
151310
151310
151310
151310
151310
151310
151310
151310
151310
151311
151311
151311
151310
151311
151311
151311
151311
151311
151310
151310
151310
151309
151310
151310
151311
151311
151312
150664
150663
150663
150663
150662
150662
150661
150660
150659
150658
150656
150654
150652
150650
150648
150645
150642
150638
150634
150630
150625
150619
150614
150607
150600
150593
150584
150576
150567
150557
150546
150535
150524
150512
150500
150487
150474
150460
150446
150432
150417
150402
150387
150372
150356
150340
150325
150310
150294
150279
150264
150249
150235
150220
150206
150193
150180
150167
150155
150143
150133
150122
150113
150104
150096
150089
150083