/*--------------------------------*- C++ -*----------------------------------*\
| =========                 |                                                 |
| \\      /  F ield         | OpenFOAM: The Open Source CFD Toolbox           |
|  \\    /   O peration     | Version:  v2012                                 |
|   \\  /    A nd           | Website:  www.openfoam.com                      |
|    \\/     M anipulation  |                                                 |
\*---------------------------------------------------------------------------*/
FoamFile
{
    version     2.0;
    format      ascii;
    class       volScalarField;
    location    "400";
    object      p_rgh;
}
// * * * * * * * * * * * * * * * * * * * * * * * * * * * * * * * * * * * * * //

dimensions      [1 -1 -2 0 0 0 0];


internalField   nonuniform List<scalar> 
65536
(
58323.3
58323.3
58323.1
58322.7
58322
58321.2
58320.3
58319.2
58317.7
58316.1
58314.3
58312.2
58309.9
58307.3
58304.4
58301.2
58297.4
58293.2
58288.8
58283.9
58278.7
58272.9
58266.6
58259.9
58252.6
58244.8
58236.4
58227.5
58218.1
58208.1
58197.5
58186.5
58175
58163
58150.6
58137.6
58124.3
58110.7
58096.7
58082.3
58067.6
58052.8
58037.9
58022.7
58007.5
57992.3
57977.1
57961.9
57946.8
57931.9
57917.1
57902.5
57888.4
57874.8
57861.6
57848.9
57836.6
57824.8
57813.6
57802.9
57792.8
57783.5
57775
57767.2
57760
57753.8
57747.9
57743.1
57739.4
57736.2
57734.9
57732.6
57731.2
57732.3
57733.3
57735.1
57737.7
57740.7
57744.9
57750
57754.8
57760.1
57767.4
57772.7
57780
57787.7
57794.5
57805.4
57811.6
57821.9
57831.7
57840.5
57852.4
57860.4
57870.1
57881.4
57891.4
57901.3
57912.7
57924
57932.9
57944
57953.3
57960.1
57969.4
57980.4
57990.2
57999.2
58007.5
58014.1
58020.4
58027.9
58036.5
58044.3
58051.6
58058.4
58065.2
58072.6
58080.6
58089.2
58098.2
58107.4
58116.5
58126.1
58133.9
58142
58150.9
58160.2
58169.3
58177
58180.4
58178.6
58173.6
58165.7
58156.5
58146.7
58137
58127.5
58118.5
58110
58102.1
58094.6
58087.5
58080.9
58074.7
58068.7
58063.1
58057.6
58052.5
58047.4
58042.7
58038.1
58033.7
58029.4
58025.3
58021.3
58017.4
58013.5
58009.6
58005.8
58002.2
57998.6
57995.3
57992.1
57989.1
57986.4
57983.7
57981.1
57978.6
57976.2
57974
57971.8
57969.8
57967.7
57965.8
57963.9
57962.1
57960.3
57958.6
57957
57955.6
57954.3
57953.1
57952
57951
57950.1
57949.2
57948.4
57947.6
57946.9
57946.1
57945.4
57944.6
57943.9
57943.1
57942.3
57941.6
57940.8
57940.2
57939.6
57939
57938.5
57938
57937.6
57937.1
57936.7
57936.1
57935.7
57935
57934.4
57933.6
57933
57932.2
57931.7
57931.1
57930.6
57930.2
57929.8
57929.4
57929.1
57928.9
57928.6
57928.4
57928.2
57927.9
57927.7
57927.5
57927.4
57927.2
57927.2
57927.3
57927.5
57927.5
57927.8
57927.8
57928.1
57928.2
57928.3
57928.4
57928.5
57928.4
57928.4
57928.4
57928.3
57928.2
57928.1
57927.9
57927.8
57927.7
57927.6
57927.5
57927.3
57927.2
57927
57926.8
57926.6
57926.4
57926.1
57925.9
57925.7
57925.6
57925.4
57925.4
57925.3
57925.4
57925.3
57925.4
57925.5
57925.7
57925.8
57926
57926.2
57926.4
57926.6
57926.7
57927
57927.2
57927.5
57927.7
57927.8
57927.8
57927.9
57927.9
57928
57927.9
57927.9
57927.8
57927.8
57927.7
57927.7
57927.7
57927.8
57927.9
57928
57928
57928
57928
57928.1
57928.1
57928.2
57928.3
57928.4
57928.5
57928.6
57928.7
57928.7
57928.7
57928.5
57928.4
57928.2
57928.1
57928
57927.9
57927.8
57927.8
57927.8
57927.9
57927.9
57927.9
57928
57928
57928
57928
57928
57928
57928
57928
57928
57928
57927.9
57927.9
57927.7
57927.7
57927.5
57927.4
57927.3
57927.2
57927.1
57927
57926.9
57926.9
57926.8
57926.8
57926.6
57926.5
57926.4
57926.3
57926.2
57926.2
57926.1
57925.9
57925.8
57925.7
57925.6
57925.7
57925.8
57926.2
57926.5
57927
57927.4
57928
57928.3
57928.7
57928.9
57929.2
57929.4
57929.6
57929.6
57929.8
57929.8
57930
57930.2
57930.3
57930.5
57930.8
57931
57931.3
57931.5
57931.7
57931.9
57932.3
57932.5
57933
57933.4
57933.8
57934.3
57934.6
57935
57935.2
57935.5
57935.6
57935.7
57935.7
57935.7
57935.6
57935.5
57935.4
57935.3
57935.1
57935
57934.9
57934.9
57934.8
57934.9
57934.8
57934.9
57934.8
57934.9
57934.8
57934.8
57934.8
57934.8
57934.9
57935.2
57935.4
57935.6
57935.9
57936.1
57936.4
57936.8
57937.2
57937.6
57938.1
57938.5
57938.8
57939
57939.2
57939.4
57939.5
57939.7
57939.8
57940
57940.1
57940.3
57940.5
57940.6
57940.7
57940.8
57940.8
57940.7
57940.4
57940.1
57939.8
57939.4
57939.1
57938.7
57938.4
57938.2
57937.9
57937.8
57937.8
57937.8
57937.9
57938
57938.1
57938.3
57938.4
57938.5
57938.7
57938.9
57939.1
57939.2
57939.4
57939.4
57939.5
57939.5
57939.6
57939.7
57939.8
57940.1
57940.4
57940.6
57940.9
57941
57941.2
57941.2
57941.2
57941.2
57941.1
57941.1
57940.9
57940.8
57940.6
57940.4
57940.1
57939.7
57939.4
57939
57938.7
57938.5
57938.3
57938.2
57938.1
57938.2
57938.2
57938.5
57938.7
57939
57939.2
57939.5
57939.6
57939.8
57939.8
57939.8
57939.6
57939.4
57939.1
57938.9
57938.6
57938.4
57938.2
57938.1
58318.1
58318
58317.7
58317.3
58316.6
58315.8
58314.9
58313.7
58312.3
58310.7
58308.9
58306.8
58304.5
58301.9
58299
58295.7
58291.9
58287.8
58283.3
58278.5
58273.3
58267.5
58261.2
58254.4
58247
58239.2
58230.8
58221.9
58212.4
58202.4
58191.8
58180.7
58169.2
58157.2
58144.7
58131.7
58118.5
58104.8
58090.8
58076.4
58061.9
58047.1
58032.1
58016.9
58001.7
57986.5
57971.3
57956.1
57941
57926.1
57911.3
57896.7
57882.6
57869
57855.8
57843.1
57830.8
57818.9
57807.6
57796.9
57786.8
57777.7
57769.2
57761.2
57753.9
57747.6
57741.7
57736.9
57733.3
57730.1
57727.7
57725.3
57724.4
57726
57727.5
57728.8
57731.3
57734.8
57738.9
57744.4
57749.3
57754.2
57761.5
57767
57773.6
57782
57788.6
57797.6
57803.1
57813
57824.5
57832.7
57842.8
57850.7
57862.3
57875.8
57884.8
57894.8
57906.1
57917.8
57927.5
57936.4
57944.9
57951.3
57961.6
57974.4
57985.2
57994.4
58001.9
58008.3
58014.5
58022.4
58031.6
58039.9
58046.7
58053.1
58059.8
58067.5
58075.5
58084
58093
58102.2
58111.1
58121.1
58129
58135.8
58143.8
58152.6
58160.3
58167.4
58170.5
58169
58164.2
58156.9
58148.1
58138.9
58129.6
58120.5
58111.8
58103.7
58096
58088.7
58081.8
58075.3
58069.1
58063.4
58057.7
58052.4
58047.3
58042.4
58037.7
58033.1
58028.8
58024.4
58020.4
58016.4
58012.5
58008.5
58004.7
58000.9
57997.3
57993.8
57990.4
57987.3
57984.4
57981.6
57978.9
57976.3
57973.7
57971.4
57969
57967
57964.9
57962.9
57960.9
57959
57957.3
57955.5
57953.9
57952.4
57951.1
57949.7
57948.6
57947.6
57946.4
57945.5
57944.6
57943.8
57943
57942.3
57941.5
57940.7
57940
57939.1
57938.4
57937.5
57936.8
57936.1
57935.3
57934.7
57934.1
57933.7
57933.2
57932.9
57932.2
57931.9
57931.4
57931.1
57930.3
57929.8
57929
57928.3
57927.7
57927
57926.5
57925.9
57925.6
57925.1
57924.8
57924.5
57924.2
57924
57923.9
57923.7
57923.4
57923.1
57922.9
57922.8
57922.6
57922.6
57922.6
57922.8
57922.7
57923
57923
57923.1
57923.3
57923.5
57923.5
57923.6
57923.7
57923.7
57923.6
57923.5
57923.4
57923.3
57923.2
57923.2
57923
57922.9
57922.8
57922.8
57922.6
57922.5
57922.2
57922
57921.7
57921.6
57921.2
57921.2
57920.9
57920.8
57920.8
57920.8
57920.8
57920.8
57920.9
57920.9
57921
57921.2
57921.3
57921.6
57921.7
57921.9
57922
57922.3
57922.4
57922.6
57922.8
57923
57923.1
57923.2
57923.2
57923.3
57923.3
57923.1
57923.2
57923
57923.1
57923
57923
57923.1
57923.2
57923.4
57923.4
57923.4
57923.4
57923.5
57923.5
57923.5
57923.6
57923.7
57923.7
57923.8
57923.9
57923.9
57923.9
57923.8
57923.6
57923.6
57923.4
57923.3
57923.1
57923.1
57923
57923.1
57923.2
57923.2
57923.3
57923.3
57923.2
57923.3
57923.3
57923.4
57923.3
57923.4
57923.3
57923.3
57923.3
57923.2
57923.2
57923
57922.9
57922.8
57922.7
57922.5
57922.5
57922.5
57922.4
57922.4
57922.4
57922.3
57922.2
57922
57921.9
57921.7
57921.6
57921.7
57921.6
57921.6
57921.4
57921.2
57921.1
57921.1
57921.3
57921.3
57921.8
57921.9
57922.4
57922.9
57923.3
57923.7
57923.9
57924.4
57924.6
57924.7
57925.1
57925.2
57925.2
57925.4
57925.3
57925.5
57925.6
57926
57926.2
57926.4
57926.6
57926.9
57927.2
57927.4
57927.7
57928
57928.4
57928.8
57929.2
57929.6
57930
57930.3
57930.7
57931
57931.1
57931.2
57931.1
57931.1
57931.1
57931
57930.9
57930.5
57930.4
57930.2
57930.2
57930.3
57930.2
57930.3
57930.2
57930.2
57930.2
57930.1
57930.1
57930.1
57930.2
57930.2
57930.3
57930.5
57930.8
57930.9
57931.2
57931.5
57931.8
57932.1
57932.6
57932.9
57933.4
57934
57934
57934.4
57934.5
57934.7
57934.8
57935
57935.1
57935.2
57935.4
57935.5
57935.7
57935.8
57935.9
57936.1
57936
57936.1
57935.8
57935.5
57935.2
57934.8
57934.6
57934.2
57933.8
57933.5
57933.2
57933
57933.1
57933.2
57933.4
57933.5
57933.6
57933.7
57933.8
57934
57934.2
57934.3
57934.4
57934.6
57934.8
57934.8
57934.9
57934.9
57935.1
57935.3
57935.4
57935.6
57935.8
57936
57936.2
57936.2
57936.4
57936.4
57936.5
57936.3
57936.2
57936.1
57936
57936
57935.9
57935.7
57935.4
57935.1
57935
57934.6
57934.3
57934.1
57933.8
57933.6
57933.5
57933.5
57933.6
57933.9
57934
57934.4
57934.7
57934.8
57934.9
57935.2
57935.1
57935.1
57934.9
57934.7
57934.5
57934.3
57934
57933.8
57933.7
57933.6
58307.6
58307.5
58307.2
58306.7
58306.1
58305.3
58304.3
58303.1
58301.7
58300.1
58298.3
58296.2
58293.8
58291.1
58288.2
58284.8
58281.1
58277
58272.6
58267.7
58262.4
58256.5
58250.1
58243.2
58235.8
58227.9
58219.5
58210.6
58201
58190.9
58180.3
58169.2
58157.6
58145.5
58133
58120
58106.8
58093.1
58079.1
58064.9
58050.4
58035.6
58020.6
58005.4
57990.2
57975
57959.7
57944.5
57929.4
57914.5
57899.8
57885.3
57871.3
57857.6
57844.4
57831.6
57819.3
57807.4
57796.2
57785.5
57775.5
57766.4
57757.8
57749.9
57742.6
57736.3
57730.7
57726.1
57722.4
57719.4
57716.9
57715.1
57715
57715.9
57717.3
57719
57721.3
57724.7
57728.9
57734
57738.7
57744.5
57751.7
57758.1
57765.8
57773.7
57782.2
57791.2
57797.6
57807.6
57818.5
57827.9
57837.8
57845.6
57856.6
57867.9
57876.1
57886
57898
57908.8
57919.2
57927.5
57933.7
57941.4
57953
57965.4
57976.3
57985.8
57992.9
57998.1
58003.9
58012.6
58022.8
58031.4
58038.3
58044.5
58050.7
58057.9
58065.8
58074
58083.6
58092.7
58100.2
58110.5
58119.7
58123.5
58130.7
58138.9
58144.2
58149.4
58151.9
58150.7
58146.9
58140.3
58132.5
58124.2
58115.8
58107.6
58099.6
58091.9
58084.7
58077.8
58071.3
58064.9
58059.1
58053.3
58048.2
58042.7
58037.9
58032.9
58028.3
58023.9
58019.6
58015.4
58011.2
58007.2
58003.5
57999.7
57995.7
57991.9
57988.4
57984.7
57981.3
57978.4
57975.4
57972.8
57970.2
57967.5
57964.8
57962.4
57960.2
57958
57956.1
57954
57952.2
57950.6
57948.8
57947
57945.5
57943.8
57942.6
57941.7
57940.4
57939.4
57938.4
57937.3
57936.3
57935.6
57934.6
57933.8
57933.1
57932.3
57931.6
57930.6
57929.8
57929.2
57928.3
57927.2
57926.8
57926
57925.5
57925
57924.3
57923.9
57923.7
57923.3
57923
57922.7
57922.4
57921.7
57921
57920.3
57919.4
57918.8
57918.2
57917.7
57917.2
57916.8
57916.4
57916
57915.7
57915.8
57915.6
57915.4
57915.3
57915
57914.6
57914.5
57914.3
57914.2
57914.1
57914.1
57914.2
57914.1
57914.2
57914.5
57914.5
57914.7
57914.8
57914.9
57915.1
57915.4
57915.1
57915.2
57914.9
57914.9
57914.6
57914.5
57914.4
57914.4
57914.2
57914.1
57914
57913.9
57913.9
57913.6
57913.5
57913.4
57913.4
57912.9
57912.7
57913
57912.6
57912.3
57912.4
57912.5
57912.5
57912.7
57912.8
57912.8
57912.9
57912.7
57913.1
57913
57913.3
57913.4
57913.8
57914.2
57914.5
57914.6
57914.6
57914.5
57914.9
57914.9
57914.8
57914.9
57914.7
57914.7
57914.3
57914.3
57914.4
57914.6
57914.8
57915.2
57914.8
57914.9
57914.8
57914.6
57914.9
57914.9
57915.2
57915.3
57915.3
57915.3
57915.4
57915.5
57915.5
57915.2
57915.2
57914.9
57915.1
57915.1
57915
57914.9
57914.9
57915.1
57915.2
57915.1
57915
57915.1
57915
57914.9
57914.9
57914.8
57914.7
57914.8
57915
57914.8
57914.8
57914.7
57914.6
57914.5
57914.7
57914.6
57914.5
57914.3
57914.1
57914
57914.1
57914.1
57914.1
57914
57914.2
57913.8
57913.8
57913.7
57913.6
57913.5
57913.7
57913.6
57913.2
57913.1
57912.9
57912.8
57912.9
57913.1
57913.3
57913.7
57914.2
57914.5
57915.1
57915.2
57915.3
57915.3
57915.8
57916
57916.3
57916.4
57916.7
57916.7
57917.1
57917.4
57917.6
57917.7
57918
57918.5
57918.8
57919
57918.9
57919.1
57919.4
57919.5
57919.8
57920.1
57920.6
57920.7
57921.3
57921.6
57921.9
57922.3
57922.4
57922.4
57922.5
57922.7
57922.8
57922.5
57922.6
57922.4
57922.4
57922.3
57922.1
57922.2
57922.2
57922.2
57922.1
57922.1
57922
57922.2
57922.1
57922.2
57922.1
57922.2
57922.5
57922.7
57922.7
57922.9
57923.1
57923.3
57923.6
57923.8
57924.2
57924.7
57925
57925.3
57925.7
57925.9
57925.9
57926
57926.1
57926.3
57926.6
57926.7
57926.9
57927.1
57927.1
57927.3
57927.4
57927.4
57927.6
57927.8
57927.3
57926.9
57926.5
57926.2
57926.1
57925.7
57925.4
57925.4
57925.2
57925
57925
57925.2
57925.1
57925.2
57925.2
57925.5
57925.6
57925.7
57925.8
57926
57926.2
57926.4
57926.5
57926.7
57926.8
57926.7
57926.6
57926.6
57926.5
57926.9
57927
57927.2
57927.3
57927.6
57927.6
57927.6
57927.6
57927.7
57927.6
57927.5
57927.4
57927.3
57927.1
57927.1
57927.2
57926.8
57926.5
57926
57925.7
57925.4
57925.4
57925.3
57925.3
57925.4
57925.5
57925.9
57926.1
57926.3
57926.3
57926.5
57926.7
57926.7
57926.8
57927
57926.8
57926.5
57926
57925.7
57925.4
57925.1
57925
57924.8
58290.6
58290.5
58290.2
58289.7
58289
58288.2
58287.2
58285.9
58284.6
58282.9
58281.1
58279
58276.6
58273.8
58270.8
58267.4
58263.7
58259.6
58255.2
58250.2
58244.7
58238.8
58232.4
58225.4
58217.9
58210
58201.5
58192.4
58182.8
58172.7
58162
58150.8
58139.2
58127.1
58114.5
58101.5
58088.2
58074.5
58060.6
58046.4
58032
58017.2
58002.1
57987
57971.8
57956.6
57941.3
57926
57910.9
57896
57881.4
57867.1
57853.1
57839.4
57826.1
57813.1
57800.8
57789.1
57778
57767.4
57757.3
57748
57739.4
57731.6
57724.5
57718.3
57712.8
57708.2
57704.3
57701.1
57699.2
57697.8
57697.8
57698.8
57700.5
57702.4
57705.6
57709.3
57713
57718.3
57723.4
57728.8
57735.7
57741.9
57749.5
57757.8
57766.1
57774.8
57783
57792.5
57803.2
57812.4
57822
57831.2
57842.2
57852.3
57861.6
57872.5
57884
57895
57905
57914
57920.3
57928.9
57939.9
57952.4
57963.4
57972.1
57979.9
57985.2
57991
58000.3
58011
58019
58025.5
58031.6
58038
58045.1
58052.9
58060.3
58068.1
58078.2
58085.8
58090.9
58101.9
58108.7
58112
58115.8
58119.9
58125.5
58127.6
58126.2
58123.3
58117.5
58111
58103.7
58096.4
58089.2
58082.2
58075.6
58069.2
58062.5
58056.2
58050.4
58044.8
58039.7
58034.7
58029.6
58024.7
58020.3
58015.9
58011.2
58007.3
58002.7
57998.4
57994.7
57991.2
57987
57983.1
57979.4
57975.9
57972.3
57969
57965.9
57963.2
57960.7
57958.6
57955.3
57952.6
57949.9
57947.7
57945.8
57944.1
57941.8
57939.9
57938.2
57936.5
57935.1
57933.8
57932.4
57931.2
57929.7
57929.1
57928.1
57926.6
57925.5
57924.6
57923.6
57923
57922.6
57921.2
57920.2
57919.3
57918.7
57918
57917
57916.3
57915.7
57914.5
57913.7
57913.1
57912.5
57912.1
57911.7
57911.4
57911.1
57910.7
57911.3
57910.6
57910.4
57909.6
57908.9
57907.9
57907.3
57906.6
57906.1
57906
57905.1
57904.8
57904.6
57904.7
57904.4
57904.6
57904
57903.6
57903.3
57903.2
57903.3
57902.4
57902.3
57902.7
57902.8
57902.1
57902.3
57902
57902.3
57902.3
57902.4
57902.4
57902.7
57902.5
57902.8
57903
57903.1
57903.2
57902.9
57902.6
57902.5
57902.6
57902.4
57902.5
57902.5
57902.3
57902.2
57901.8
57901.7
57901.4
57901.5
57901.2
57901.2
57901.4
57901.2
57901.2
57901.2
57901
57901
57901
57900.8
57901.2
57901.6
57901.3
57900.8
57901.2
57901.5
57901.5
57901.7
57901.9
57902.3
57902.6
57902.5
57902.6
57902.5
57902.6
57903.2
57902.9
57902.7
57903.2
57902.9
57902.5
57902.5
57902.3
57902.6
57903.1
57903.8
57903.4
57902.8
57902.9
57903.3
57903.2
57903
57903.3
57903.8
57903.4
57903.3
57903.4
57903.7
57903.1
57903.2
57903.2
57903.3
57903.1
57903.8
57903.1
57903
57902.9
57903
57903.6
57903.3
57903.3
57903.4
57903.3
57903
57903.2
57903
57903.1
57903.1
57903.1
57903.3
57903.4
57903.1
57903
57902.8
57902.5
57902.5
57902.3
57902.3
57902.2
57902.4
57902.5
57902.6
57902.9
57903.2
57903.4
57902.8
57902.2
57901.8
57901.7
57901.6
57901.7
57902.3
57902
57901.6
57901.2
57901.4
57901.3
57901.8
57902.3
57902.9
57903.1
57903.2
57904
57903.8
57904
57903.8
57903.9
57904.6
57904.9
57904.9
57905.3
57905.4
57905.3
57905.5
57905.7
57906.4
57906.6
57906.9
57907.3
57908.2
57908.1
57908.3
57908.1
57908.2
57908.3
57908.4
57908.8
57909.5
57909.6
57909.9
57910.4
57911
57910.6
57911.1
57911.1
57911.3
57911.5
57911.2
57910.9
57910.9
57910.5
57910.2
57910.4
57910.5
57911
57910.7
57910.7
57910.4
57910.1
57910.1
57910.2
57910.5
57910.6
57910.7
57910.6
57911.6
57911.4
57911.4
57911.7
57912.2
57912.1
57912.1
57912.5
57913
57913.5
57914.4
57913.8
57914.1
57914
57914.4
57914.4
57914.6
57915
57914.9
57914.8
57914.9
57915.3
57915.3
57915.2
57915.6
57915.6
57916.2
57915.2
57914.9
57914.8
57914.6
57914.8
57914.6
57914.3
57913.8
57913.3
57913.3
57913.2
57913.5
57914.1
57914.1
57914.3
57914.2
57914.2
57914.3
57914.5
57914.6
57914.7
57914.8
57915.1
57915.1
57915
57915
57915.1
57915
57915.4
57915.7
57915.9
57915.9
57915.9
57915.6
57915.6
57915.8
57915.6
57915.2
57914.8
57915.1
57915.1
57915.2
57915.3
57915.3
57915.2
57915.2
57915.6
57915
57914.4
57914.3
57913.9
57914
57913.5
57913.4
57913.4
57913.6
57914.1
57914.4
57914.8
57915.2
57915
57915.1
57914.9
57915.3
57915
57914.8
57914.5
57914.4
57914
57913.9
57913.7
57914
58267.1
58266.9
58266.6
58266.1
58265.4
58264.6
58263.5
58262.3
58260.8
58259.2
58257.3
58255.2
58252.8
58249.9
58246.8
58243.4
58239.7
58235.6
58231.1
58225.9
58220.4
58214.3
58207.8
58200.9
58193.3
58185.2
58176.5
58167.3
58157.6
58147.4
58136.7
58125.5
58113.8
58101.5
58088.9
58075.9
58062.5
58048.8
58034.9
58020.8
58006.3
57991.5
57976.6
57961.5
57946.3
57930.9
57915.6
57900.3
57885
57870.1
57855.8
57841.8
57828
57814.3
57800.8
57787.7
57775.3
57763.6
57752.8
57742.6
57732.5
57722.9
57714.3
57706.6
57699.9
57694
57688.7
57684.2
57680.3
57677.4
57675.6
57674.7
57675.1
57676.1
57677.9
57679.8
57682.9
57687.3
57691.4
57697.4
57703.2
57708.5
57714.9
57721.8
57730.1
57738.8
57747.3
57756.7
57764.6
57775.6
57784.8
57795.2
57805.9
57814.3
57826.6
57836.9
57847
57858.4
57868.2
57879.3
57890.3
57899.4
57906.5
57918
57928.8
57939.3
57949.3
57958
57964.7
57972.3
57979.9
57988.7
57997.9
58005
58011
58016.9
58023.2
58029
58034.8
58042.2
58048.6
58055.9
58067.1
58072.7
58073.3
58082.3
58090.1
58089.6
58090
58094.7
58096.6
58096.3
58093.8
58089
58084
58078.1
58072.1
58066.5
58060.6
58054.4
58049.3
58042.9
58036.9
58031.5
58026.4
58021.6
58017.8
58012.3
58007.8
58003.1
57999.5
57994.8
57991.1
57986.7
57982.4
57978.5
57975.2
57971.5
57966.9
57963.5
57960.7
57956.6
57952.9
57950.3
57947.7
57945.8
57943.4
57939.5
57936.9
57934.5
57932.1
57930.4
57928.6
57926
57924.5
57923.5
57921.7
57920.2
57918.7
57917.6
57916.6
57915.2
57914.3
57914.2
57912.2
57911.2
57910.4
57909.4
57908.5
57908.5
57906.8
57905.6
57905.1
57903.6
57902.9
57902.5
57901.5
57900.6
57898.7
57898.3
57897.7
57897.4
57897
57897
57897.3
57896.3
57896.1
57897
57896.6
57896.2
57894.7
57894.5
57893
57892.3
57891.8
57891.1
57891.4
57890.7
57889.5
57889.2
57889.3
57889.5
57890.5
57890
57889.9
57889
57888.5
57888.7
57888
57887.7
57887.7
57888.4
57887.9
57887.7
57887.5
57887.2
57887.2
57887.7
57887.6
57887.7
57887.7
57888.5
57888.1
57888.6
57887.7
57887.8
57887.3
57887.7
57887.4
57887.6
57887.5
57887.6
57887.2
57887.2
57887.1
57887.1
57887.4
57887.5
57886.8
57887.3
57886.5
57887.6
57886.5
57886
57886
57885.8
57886.2
57886.4
57885.9
57886.9
57886.4
57886.4
57886.8
57886.2
57886.3
57886.4
57886.9
57887.1
57888.1
57887.6
57887.4
57887.5
57887.6
57888.2
57887.8
57887.6
57888.3
57887.4
57887.2
57887
57887.2
57887.5
57887.8
57888.5
57888.1
57887.8
57888
57888.2
57888.1
57888.2
57888.3
57888.7
57888.1
57887.9
57887.8
57888.3
57888
57887.7
57887.9
57888.2
57888
57888.7
57888.2
57888
57888.4
57888.6
57889.6
57888.6
57888.8
57889.4
57888.8
57889.1
57889.3
57888.8
57888.6
57888.3
57888.9
57888.6
57889
57888.2
57887.9
57887.7
57888
57888.2
57887.8
57887.3
57887.5
57888.2
57888
57887.8
57888.1
57887.9
57888.7
57888.1
57888.4
57887.5
57887.3
57887.5
57887.8
57887.9
57887.2
57887.3
57887.6
57887.4
57887.6
57887.6
57888.2
57888.1
57888.2
57888.8
57890
57888.9
57888.3
57889
57889.3
57889.4
57890.5
57890.9
57890.8
57890.9
57890.9
57890.9
57891.9
57891.8
57892.2
57892.5
57892.8
57894.3
57894
57893.4
57892.9
57893
57893.4
57893.8
57893.6
57894.1
57894.2
57894.4
57895.1
57896.3
57896.1
57896.1
57896
57896.3
57897.4
57896.5
57896.3
57896.3
57896.5
57896.3
57896.1
57896.2
57896.9
57896.3
57895.7
57895.3
57895.7
57895.7
57895.9
57896.8
57896.4
57896.7
57896.8
57897.9
57897.2
57897
57897
57897.9
57897.2
57897.2
57897.5
57898.2
57899
57900.3
57899.8
57899.7
57899.4
57899.7
57899.5
57899.7
57900.5
57900
57900
57900.2
57900
57900.3
57900.5
57900.5
57900.8
57901.3
57900.5
57900.1
57900
57900.1
57900.5
57899.8
57900.3
57899.7
57899.6
57898.8
57898.7
57899.5
57900.1
57899.2
57900
57899.3
57899.4
57899.9
57899.7
57899.6
57899.9
57899.9
57900.4
57901.2
57900.8
57900.6
57900.4
57900.7
57900.3
57900.7
57901.4
57901.1
57901.3
57900.5
57900.4
57901.1
57900.7
57900.3
57900.4
57900
57900.3
57900.7
57900.5
57900.6
57901.3
57900.8
57901.5
57900.2
57899.9
57899.8
57899.5
57899.5
57898.9
57899
57899.5
57899.9
57900.4
57900.1
57900.6
57900.9
57900.3
57900.1
57900.4
57901
57900.2
57900.4
57899.7
57899.7
57898.9
57898.8
57898.9
57900
58236.6
58236.4
58236.1
58235.5
58234.9
58234
58232.8
58231.5
58230.1
58228.3
58226.4
58224.1
58221.5
58218.7
58215.5
58211.9
58208
58203.9
58199.3
58194.1
58188.3
58182
58175.5
58168.5
58160.9
58152.7
58143.9
58134.6
58124.9
58114.6
58103.9
58092.6
58080.7
58068.5
58055.9
58043
58029.6
58015.8
58001.9
57987.7
57973.3
57958.4
57943.5
57928.5
57913.2
57897.8
57882.6
57867.4
57852.1
57837.1
57822.8
57809
57795.3
57781.7
57768.3
57755.2
57742.6
57730.9
57720.2
57710.3
57700.5
57690.8
57682.1
57674.5
57667.9
57662.4
57657.4
57652.9
57648.9
57646.2
57644.7
57644
57645
57646.7
57648.8
57651.1
57654.5
57658.8
57663.4
57669.7
57676.1
57682
57687.8
57695.5
57704
57712.8
57720.9
57729.7
57739.1
57749.7
57759.9
57770.4
57780.2
57790.3
57802.7
57812.4
57822.9
57835.2
57845.3
57856.9
57868.2
57876.3
57887
57896.8
57907.9
57918
57929.8
57938
57945.9
57952.5
57961.5
57971.3
57979.8
57987.1
57993
57998.1
58003.4
58009.1
58014.2
58020
58027.2
58032.3
58036.7
58046.4
58050.5
58048.7
58052.7
58056.5
58057.3
58060.1
58061.5
58061
58059.5
58056.3
58052.1
58048
58043.5
58039
58035
58029.2
58023.6
58018.7
58014.1
58009.6
58004.7
58001
57996.8
57991.3
57987.4
57983.2
57978.1
57974
57970.1
57966.8
57962.2
57958.7
57955
57952.3
57947.8
57944.1
57941.9
57937.6
57934.3
57930.9
57928.5
57926.9
57923.4
57921.1
57918.7
57915.9
57913.3
57912.3
57909.7
57908.2
57906.4
57905.8
57903.4
57902.8
57901.2
57899.4
57899.3
57897.6
57896.2
57895.3
57894.6
57893.6
57893.3
57891.7
57890.5
57889.8
57888.5
57887.5
57887.1
57885.9
57885.2
57885.1
57883.9
57884
57881.6
57880.5
57879.9
57879
57878.8
57878.7
57879.2
57877.2
57877
57876.7
57877.9
57876.2
57876.2
57875.9
57874.8
57875
57874.6
57873.4
57873.2
57873.1
57871.5
57871.2
57872.3
57871.4
57871.4
57872.7
57872.5
57871.2
57870.6
57869.7
57869.5
57869.3
57870.5
57869.3
57869.3
57869.2
57869.7
57870
57869.6
57869.6
57869
57869.8
57869.5
57869.9
57870
57870.9
57870.4
57871
57870.7
57870.1
57869.8
57869.5
57869.9
57869.4
57868.7
57868
57868.7
57868.9
57870
57870.3
57869.5
57870.1
57868.7
57870.4
57869.8
57868.8
57868.4
57868.3
57869
57868.1
57868
57867.5
57868.7
57869.6
57869.9
57869.1
57868.5
57868.7
57868.9
57869.5
57870.7
57870.2
57869.2
57868.9
57869.2
57868.5
57868.3
57869.4
57869.7
57869.6
57868.6
57868.7
57868.5
57868.9
57869.8
57869.7
57870
57869.5
57869.4
57870.2
57870.1
57870.1
57869.7
57869
57869.9
57869.8
57869.1
57868.9
57869
57869
57869.8
57870.3
57869.3
57869.2
57870
57870.2
57871
57870.7
57871.6
57870.9
57871.2
57872.2
57871.4
57872.3
57871.6
57870.8
57871.2
57870.7
57871.6
57871.1
57871.3
57870.2
57870.6
57870.3
57870.5
57871.2
57870.6
57870.1
57869.9
57870.2
57870.8
57870.4
57871.4
57870.7
57870.2
57870.5
57871.3
57870.1
57869.9
57869.4
57869.9
57869.6
57870
57869.8
57871.1
57870
57870.4
57870.3
57870
57871.4
57870.8
57871.1
57872.4
57872.2
57871.2
57870.3
57871.2
57871.6
57873.1
57872.6
57873.5
57874.1
57874
57874.2
57875.5
57874.9
57875.6
57875.2
57875.8
57876.4
57875.9
57875.8
57876.2
57875.8
57875.8
57875.9
57876.1
57877.4
57877.1
57876.7
57876.4
57877.4
57877.3
57877.1
57878
57878.8
57879.8
57878.6
57878.7
57879.6
57879.4
57878.9
57878.6
57878.3
57878.1
57878.7
57879.1
57878.6
57878.4
57878.5
57878.7
57879.9
57879.5
57879.6
57880.7
57880.6
57880
57880
57879.2
57878.6
57879.3
57879.4
57879.9
57880.6
57881.3
57881.7
57881.6
57882.4
57881.9
57882.6
57881.4
57881.7
57882.5
57881.9
57882
57882.6
57882.9
57882.4
57882.2
57882.6
57882.7
57882.3
57881.6
57881
57881.2
57881.7
57882.2
57881.9
57881.4
57882.5
57883.1
57882.1
57882.1
57882.2
57880.8
57881.4
57880.9
57881.5
57882.3
57883.3
57882.3
57882.3
57882.8
57882.5
57883.4
57884.1
57883.4
57883.5
57883.4
57882.7
57882.3
57882.7
57882
57883.1
57882.7
57881.7
57881.6
57881.9
57882.8
57882.4
57882.2
57882.2
57882.9
57882.9
57882.8
57883.4
57884.3
57883
57882.9
57881.8
57881.6
57882.4
57880.7
57880.8
57880.8
57881.1
57881.7
57882.3
57883.5
57882.9
57883.3
57882.1
57882.2
57882.9
57882.4
57882.9
57882.4
57882.7
57881.8
57881.6
57880.8
57880.9
57880.4
57880.1
58199.4
58199.2
58198.8
58198.3
58197.6
58196.7
58195.5
58194.1
58192.6
58190.8
58188.8
58186.5
58183.8
58181
58177.7
58174
58170.1
58165.9
58161.3
58156
58150.3
58144
58137.4
58130.3
58122.7
58114.5
58105.7
58096.4
58086.7
58076.4
58065.7
58054.3
58042.5
58030.3
58017.7
58004.8
57991.4
57977.7
57963.8
57949.6
57935.1
57920.3
57905.3
57890.1
57874.8
57859.5
57844.5
57829.3
57814
57799.1
57784.9
57770.9
57757
57743.4
57730.3
57717.5
57704.9
57693.2
57682.4
57672.2
57662.5
57653.3
57644.8
57637.2
57630.5
57624.8
57620.1
57616.1
57612.8
57610.3
57608.8
57608.6
57610.1
57611.4
57613.8
57616.5
57620.4
57625.1
57629
57635.6
57643.2
57650.2
57657.1
57664.6
57674.1
57682.8
57691.9
57700.8
57711.3
57722.1
57731.4
57741.9
57753.1
57763.1
57775.1
57785.3
57796.8
57809.4
57820.4
57832.7
57843.8
57852.6
57864.8
57875
57885.8
57897.3
57908.2
57915.6
57924
57932.6
57942
57950.6
57958.5
57964.9
57970.5
57975.7
57980.4
57985
57989.6
57993.4
57998.3
58005
58008.7
58009.5
58013.3
58016.2
58015
58015.7
58018.6
58019.9
58021.9
58021.6
58020.7
58018.2
58016.8
58014
58011.1
58008.4
58003.7
57999.8
57995.3
57991.5
57987.6
57984
57979
57975.5
57969.7
57966.1
57962
57959
57953.8
57949.7
57945.7
57943.1
57939.9
57936.2
57931
57928.1
57923.6
57920.8
57918.8
57915
57912.9
57908.7
57906.1
57904.3
57901.3
57900
57897.9
57894.4
57892.2
57890.6
57888
57887.1
57884.7
57882.5
57881.8
57881.5
57880.4
57878.4
57878.4
57875.7
57875.3
57875.5
57874.6
57873.1
57873.1
57871.4
57869
57867.4
57866.4
57866
57865.3
57864
57863.9
57864
57863
57863.3
57861.6
57860.1
57858.5
57858.3
57857.9
57857.4
57854.9
57855.3
57855.3
57854.9
57853.7
57853.8
57854.4
57853.6
57853
57853.9
57851.3
57850.9
57850.2
57849.4
57850.1
57850.7
57852.1
57850.6
57850
57851.4
57850.7
57850.6
57849.9
57848.1
57848
57848.5
57850.2
57848.4
57848.8
57850
57849.5
57849.8
57848.3
57848.1
57848.7
57849.6
57849
57847.8
57847.6
57847.5
57848.3
57850.3
57851
57850.1
57849.4
57848.7
57848.7
57847.6
57847.3
57847.5
57847.9
57846.9
57847.2
57847.9
57847.1
57847.5
57847.7
57847.7
57846.3
57847
57846.6
57847
57848.2
57847.8
57847.5
57846.2
57846.8
57849.3
57849.1
57849
57847.8
57848.4
57848.6
57848.9
57848.5
57849.7
57848.6
57847.3
57848.2
57846.8
57847.4
57849
57848.3
57848.5
57847.9
57847.6
57847.8
57847.9
57849.5
57848.7
57848.7
57847.4
57847.2
57848.3
57848.4
57848.1
57847.8
57847.6
57848.6
57847.3
57847.3
57846.8
57847.4
57847.2
57846.9
57847.5
57847.1
57847.1
57847.4
57848.8
57848.4
57849.7
57848.7
57849.4
57850.2
57851.1
57849.6
57848.6
57849.1
57850.2
57848.6
57849.3
57849.2
57850.6
57850.5
57849.4
57849.9
57849.1
57849.5
57850.4
57850.4
57848.8
57848.1
57847.7
57847.9
57849.1
57850.7
57850
57849.5
57849.8
57848.9
57849
57849.6
57848.7
57849.8
57848.4
57849.6
57849.2
57847.5
57848.4
57850.2
57850.6
57849.7
57851.2
57850.6
57850.3
57849.7
57851
57850.8
57851.5
57850.8
57850.8
57852.5
57852.6
57853.7
57853.6
57853.4
57852.9
57851.9
57853.4
57854.6
57854.4
57854
57853.9
57854.7
57855
57854.9
57854.9
57855.8
57855.9
57855.4
57856.7
57855.8
57854.9
57855
57855
57855.7
57856.6
57856.7
57857.9
57858.6
57857.5
57857.2
57858.4
57857.1
57859
57858.6
57857.8
57857.6
57858.7
57858.8
57859
57858.4
57856.8
57857.4
57857.7
57858.9
57857.9
57858.5
57858.3
57859.3
57858.5
57858.2
57857.6
57858.3
57857.9
57858.8
57860.1
57859.5
57859.8
57861.3
57861.4
57860.4
57861.3
57860.4
57860.7
57860.3
57861
57861.3
57862.5
57863
57862.6
57862.7
57862.8
57861.2
57860
57860.1
57860.3
57860.1
57861.1
57860.7
57859.9
57859.7
57860.4
57859.5
57861.8
57860.4
57860.5
57859.7
57859.8
57859.9
57860.9
57861.6
57862.9
57862.1
57861.2
57861.3
57861.6
57863
57861.5
57862.9
57863.4
57863.3
57862.2
57861.3
57861
57860.3
57861.2
57859.9
57860.6
57860.2
57859.9
57860.8
57860.7
57861.2
57862.4
57861.4
57861.8
57861.1
57862
57861.8
57860.3
57860.4
57860.9
57860.5
57861.5
57860.1
57859
57859.5
57860.5
57861.7
57861
57861.4
57862.5
57863.1
57861.8
57861.9
57862.7
57861
57860.1
57860.8
57859.2
57860.1
57859.6
57860.4
57860.9
57860.3
57860.1
58157.6
58157.4
58157
58156.5
58155.7
58154.8
58153.7
58152.4
58150.8
58149
58147
58144.7
58142.1
58139.2
58136
58132.4
58128.4
58124.1
58119.4
58114.1
58108.3
58102.1
58095.4
58088.3
58080.6
58072.3
58063.5
58054.2
58044.5
58034.1
58023.4
58012
58000.1
57987.9
57975.4
57962.4
57949
57935.2
57921.2
57906.9
57892.4
57877.6
57862.6
57847.3
57832
57816.6
57801.5
57786.4
57771.3
57756.5
57742.1
57728.1
57714.2
57700.6
57687.5
57674.9
57662.6
57650.7
57639.7
57629.5
57619.9
57610.9
57602.5
57595
57588.4
57582.7
57577.8
57574
57571.2
57569.1
57567.6
57567.5
57569.1
57571.1
57573.3
57575.7
57580.2
57585.7
57589.6
57596.1
57603.6
57611.4
57618.8
57627
57636.4
57645.7
57654.8
57665.2
57677
57687.9
57698
57709.2
57721.5
57732.7
57743.8
57754.9
57767
57779.1
57790
57802.9
57815.8
57826.3
57838.6
57849.2
57858.4
57870.7
57879.7
57889.5
57898.8
57908.7
57917.2
57925.3
57932.2
57938.3
57943.5
57947.5
57951.1
57954.1
57957.5
57961.7
57964.9
57967.3
57972.7
57973.4
57971.4
57971.5
57971.2
57971.9
57974.2
57976
57977.2
57978.6
57979.7
57978.5
57977.2
57976.4
57975.2
57974.1
57969.9
57967.3
57963.3
57961
57956.8
57954.1
57949.1
57943.1
57939.4
57936.2
57933.3
57929.8
57925.2
57921.4