/*--------------------------------*- C++ -*----------------------------------*\
| =========                 |                                                 |
| \\      /  F ield         | OpenFOAM: The Open Source CFD Toolbox           |
|  \\    /   O peration     | Version:  v2012                                 |
|   \\  /    A nd           | Website:  www.openfoam.com                      |
|    \\/     M anipulation  |                                                 |
\*---------------------------------------------------------------------------*/
FoamFile
{
    version     2.0;
    format      ascii;
    class       surfaceScalarField;
    location    "400";
    object      phi;
}
// * * * * * * * * * * * * * * * * * * * * * * * * * * * * * * * * * * * * * //

dimensions      [1 0 -1 0 0 0 0];
oriented        oriented;


internalField   nonuniform List<scalar> 
130432
(
35.5053
-35.2275
69.6617
-33.7441
107.181
-37.0993
146.92
-39.317
182.872
-35.5264
218.267
-34.9664
257.657
-38.9618
298.026
-39.9416
337.023
-38.5709
376.487
-39.0423
414.349
-37.4437
451.163
-36.4017
488.904
-37.3356
528.1
-38.7944
570.964
-42.4656
617.569
-46.2067
664.129
-46.1607
705.868
-41.3378
745.388
-39.1191
786.783
-40.9921
830.517
-43.3275
874.134
-43.2036
917.528
-42.9751
963.381
-45.4256
1012.22
-48.3983
1061.68
-49.0173
1108.67
-46.53
1155.62
-46.4846
1205.2
-49.0942
1254.33
-48.6398
1301
-46.1731
1346.45
-44.9417
1394.75
-47.7928
1447.97
-52.7029
1499.95
-51.4643
1547.2
-46.7351
1593.94
-46.2294
1642.66
-48.2164
1693.75
-50.5911
1743.67
-49.4169
1786.61
-42.4414
1825.84
-38.7361
1867.99
-41.6493
1911.44
-42.9603
1953.29
-41.3536
1994.97
-41.1725
2037.24
-41.752
2078.93
-41.1835
2119.12
-39.665
2157.43
-37.7883
2192.83
-34.8898
2223.79
-30.461
2254.21
-29.9128
2286.72
-32.0122
2315.34
-28.1169
2340.11
-24.2672
2366.74
-26.1322
2394.04
-26.8182
2422
-27.4733
2450.55
-28.0658
2469.16
-18.1255
2476.09
-6.43231
2485.56
-8.9686
2505.6
-19.5414
2529.91
-23.8207
2554.36
-23.96
2577.59
-22.7325
2577.28
0.816806
2546.4
31.4219
2538.67
8.32146
2596.95
-57.7122
2666.24
-68.7744
2665.55
1.21705
2610.46
55.7559
2578.53
32.5809
2600.57
-21.448
2640.25
-39.1341
2649.38
-8.60912
2619.77
30.1756
2582.14
38.2288
2564.12
18.5758
2568.74
-4.05796
2596.25
-26.9597
2630.7
-33.9028
2613.74
17.5598
2534.65
79.7078
2496.48
38.8615
2572.09
-74.9926
2655.77
-83.1722
2600.02
56.3445
2467.75
132.966
2448.41
20.1236
2563.23
-114.162
2646.62
-82.8444
2602.46
44.839
2532.5
70.7407
2541.91
-8.66563
2577.64
-35.0498
2537.88
40.4379
2444
94.6153
2410.55
34.2034
2485.8
-74.5672
2604.3
-118.014
2657.84
-53.0731
2612.69
45.7111
2539.73
73.5593
2513.69
26.5908
2546.54
-32.3748
2604.16
-57.2167
2644.21
-39.7307
2651.76
-7.25965
2636.01
15.9859
2617.08
19.11
2615.59
1.60605
2633.16
-17.5607
2652.24
-19.2449
2657.67
-5.75473
2650.8
6.34309
2637.79
12.2501
2616.37
20.3257
2586.01
28.7967
2553.71
30.2725
2518.24
32.8667
2471
44.1189
2411.9
55.5492
2350.2
57.8818
2281.73
64.4406
2189.04
88.429
2063.67
121.041
1915.11
144.344
1762.1
149.083
1618.88
139.678
1488.47
127.326
1372.87
113.023
1273.89
96.9008
1186.74
85.5791
1109.66
75.9684
1043.51
65.4059
984.687
58.3036
930.164
54.1574
880.481
49.4186
835.603
44.6657
794.252
41.1754
755.117
38.9827
718.149
36.8239
683.883
34.1241
652.08
31.6655
622.067
29.8754
593.905
28.029
567.958
25.8246
544.955
22.8913
523.634
21.2078
503.454
20.0667
484.78
18.5705
467.851
16.8187
452.02
15.7264
437.758
14.1539
425.136
12.5011
411.268
13.7676
396.226
14.9453
381.695
14.4398
368.108
13.4989
354.936
13.0953
343.506
11.3455
333.201
10.2206
323.085
10.034
314.16
8.83662
305.356
8.73236
296.282
9.01254
285.487
10.7246
272.566
12.8509
260.501
11.9976
250.809
9.6145
242.762
7.97131
234.72
7.95209
226.032
8.5845
217.527
8.39816
210.035
7.38499
203.352
6.57912
196.699
6.55691
191.178
5.42028
186.376
4.69276
181.457
4.82331
177.476
3.89076
173.505
3.89483
168.792
4.65608
164.146
4.6109
159.885
4.22701
155.92
3.94912
151.547
4.37126
146.367
5.17006
140.7
5.66147
134.546
6.14906
129.246
5.32084
124.765
4.4977
120.792
3.98276
117.662
3.14233
115.345
2.33079
113.398
1.96
110.789
2.617
106.645
4.15336
101.665
4.98197
98.0173
3.65138
94.9928
3.02407
92.8223
2.15942
90.5611
2.23692
87.0194
3.51156
82.4067
4.57303
78.3466
4.00662
76.6133
1.68701
75.2017
1.35707
73.7467
1.40421
73.2884
0.401901
73.0999
0.13815
71.0177
2.01564
68.914
2.03975
67.2806
1.57166
65.5052
1.70854
63.6696
1.7744
59.5646
4.05952
55.4388
4.10516
53.5336
1.89027
53.638
-0.0957308
54.1974
-0.531731
54.031
0.19238
53.8957
0.185587
54.4792
-0.521782
55.3853
-0.843178
55.5266
-0.0662586
54.0551
1.54146
51.6248
2.51696
51.5273
0.174978
52.1405
-0.540014
50.4708
1.75159
47.2169
3.3181
43.9544
3.32037
40.7145
3.29437
38.7416
2.01731
38.6261
0.149291
38.2253
0.431496
38.2699
-0.0255214
38.9287
-0.661111
38.3245
0.608792
36.8304
1.49639
34.9581
1.88015
33.1995
1.76707
32.6702
0.54913
32.4866
0.193859
32.4141
0.0828673
32.3265
0.0893039
30.9998
1.33279
29.3579
1.64685
27.7456
1.62392
26.2498
1.49413
26.5132
-0.279065
26.6158
-0.129381
24.3924
2.17966
22.8128
1.52986
21.2977
1.47181
19.4516
1.79806
19.7611
-0.337784
19.3158
0.380311
17.7039
1.57018
16.4017
1.2683
14.8044
1.56856
12.9871
1.79523
11.3652
1.61261
11.1943
0.159935
13.4002
-2.20501
15.8413
-2.44183
16.9939
-1.14986
18.1072
-1.11407
18.1617
-0.0582868
16.825
1.32469
14.9574
1.84968
13.5893
1.35632
12.9276
0.639325
12.5981
0.305781
12.5512
0.0185008
12.6022
-0.0737122
12.3603
0.21458
10.9086
1.43168
7.8517
3.02096
4.56317
3.2529
3.15832
1.37504
3.41483
-0.279082
4.67907
-1.27579
5.82978
-1.15676
6.57063
-0.744426
6.19949
0.373674
5.23453
0.962477
5.39792
-0.164024
6.49901
-1.0954
7.34093
-0.832266
7.66115
-0.292097
6.82402
0.866003
4.9403
1.92725
3.14895
1.84851
1.80334
1.40164
1.07087
0.77883
0.345462
0.766081
-0.141798
0.511356
0.1533
-0.272114
1.10896
-0.94835
4.09565
-2.99003
8.44176
-4.35879
9.76871
-1.34912
8.81928
0.932551
7.17195
1.63661
5.02377
2.13734
3.86244
1.15316
5.15904
-1.32887
5.33422
-0.197597
4.30548
1.00773
3.70233
0.572936
2.86215
0.796939
1.38051
1.44593
-0.264488
1.60682
-0.0846712
-0.21496
-0.61414
0.506957
-1.86256
1.23181
-2.75908
0.882675
-3.18476
0.420164
-2.07946
-1.11457
-0.387046
-1.69579
0.476869
-0.871
1.68763
-1.22703
3.89535
-2.22402
7.36281
-3.47202
12.3918
-5.03097
16.3224
-3.92384
16.4578
-0.119735
15.2434
1.22988
13.4461
1.80823
10.8193
2.63941
8.55912
2.27665
6.26379
2.31152
4.69737
1.59251
3.35125
1.36611
2.70206
0.670516
2.78411
-0.0482097
3.1533
-0.340688
3.98856
-0.815665
4.45875
-0.442925
5.44454
-0.953395
6.07904
-0.606328
5.4561
0.658671
4.79981
0.687496
5.45535
-0.627029
7.30413
-1.82127
8.54748
-1.21597
8.58395
-0.0301872
7.39987
1.18708
6.06579
1.33957
5.8273
0.233761
5.265
0.560245
5.39541
-0.139896
6.5326
-1.14485
6.88437
-0.366409
7.02562
-0.144305
7.06986
-0.0291513
6.01324
1.07116
4.55015
1.5006
3.35563
1.24099
2.74239
0.663656
1.96622
0.835369
1.17289
0.849742
0.667083
0.561756
0.314924
0.412605
0.310981
0.0661177
0.301316
0.0583079
1.52175
-1.19325
2.55038
-1.01594
3.04498
-0.487053
4.02493
-0.997137
5.29822
-1.31568
6.52452
-1.27371
7.56195
-1.08004
9.78939
-2.27386
9.75815
-0.026609
7.02422
2.67785
5.04861
1.91719
3.39661
1.59969
1.70597
1.63049
0.884761
0.764259
0.318658
0.520976
-0.017527
0.275172
-1.00637
0.927641
-1.77751
0.698023
-0.740557
-1.10353
-0.0684036
-0.753402
0.543885
-0.692053
0.0764271
0.373329
-1.51582
1.4885
-2.54767
0.938902
-4.02437
1.39068
-5.48788
1.38938
-6.37764
0.832023
-6.36477
-0.0637494
-5.45108
-0.945586
-4.52187
-0.944011
-3.64863
-0.878379
-1.39261
-2.24787
1.49401
-2.87047
2.28575
-0.760616
0.626782
1.68833
-0.72379
1.3782
-0.401738
-0.30423
1.62169
-2.01667
5.08628
-3.45774
6.64908
-1.56165
6.71289
-0.0671342
6.26523
0.417817
5.10066
1.15649
3.15951
1.92466
1.64182
1.49366
2.47189
-0.858665
4.25752
-1.81431
5.3266
-1.09435
4.79429
0.515314
3.57625
1.20317
2.72369
0.843231
2.43928
0.276864
1.5522
0.899288
-0.516844
2.06523
-2.85531
2.32671
-5.73332
2.86673
-8.06038
2.30683
-9.34242
1.25164
-10.0158
0.637472
-10.1751
0.111362
-10.0743
-0.162438
-9.15898
-0.982382
-9.34891
0.11639
-9.00736
-0.417471
-6.8416
-2.24626
-5.59268
-1.3335
-3.5904
-2.08385
-1.48495
-2.19218
0.282494
-1.85436
0.639881
-0.44297
0.740469
-0.186499
1.65702
-0.999898
2.04759
-0.480687
3.22292
-1.25972
5.12729
-1.98615
7.43896
-2.38311
9.18742
-1.82389
9.48789
-0.369602
9.64825
-0.202921
10.0661
-0.448286
10.4139
-0.369108
10.697
-0.294218
9.84585
0.849848
8.60054
1.24901
6.92621
1.6753
4.32081
2.59952
1.09054
3.21469
-1.02549
2.10069
-1.06825
0.0164963
-1.22973
0.125189
-2.73176
1.45318
-4.25453
1.47246
-4.71109
0.40182
-5.52044
0.751343
-5.75462
0.195243
-4.83971
-0.940022
-3.85047
-1.00272
-2.4682
-1.37062
-0.200878
-2.24538
2.06962
-2.22807
2.29919
-0.181668
1.71493
0.654201
0.303748
1.46942
-1.71091
2.0814
-3.72029
2.08715
-5.4052
1.74805
-6.63184
1.28061
-6.84917
0.25625
-4.81769
-1.99039
-3.98065
-0.808445
-2.31312
-1.6443
1.26871
-3.56976
2.55807
-1.29931
3.02859
-0.504834
2.60856
0.387134
1.07345
1.49803
-0.137604
1.16226
-1.29926
1.10469
-3.42817
2.06899
-3.06116
-0.421199
0.046665
-3.14387
-0.15529
0.164668
-2.79873
2.61273
-4.97045
2.15015
-5.95437
0.956383
-5.08459
-0.881598
-2.98771
-2.08202
-1.48889
-1.46002
-0.205453
-1.22761
0.542373
-0.683664
0.710196
-0.0884598
-0.431915
1.22072
-2.55825
2.2091
-4.00609
1.53358
-6.10955
2.20956
-6.67206
0.684305
-4.67465
-1.86037
-3.68498
-0.852575
-3.44752
-0.0941021
-3.16828
-0.136581
-3.00977
36.1986
-71.0147
71.0425
-68.1736
105.35
-70.9879
141.219
-74.7648
176.603
-70.4861
212.335
-70.2748
250.912
-77.1137
289.879
-78.4831
327.252
-75.521
364.757
-76.1258
401.547
-73.8166
439.036
-73.4775
478.409
-76.3004
519.661
-79.6436
563.525
-85.9293
608.299
-90.5792
650.568
-88.0245
688.63
-78.9923
727.425
-77.5084
769.452
-82.6138
815.157
-88.6229
862.349
-89.9781
909.094
-89.2965
955.777
-91.6784
1002.09
-94.2684
1048.37
-94.8466
1094.27
-91.9663
1140.11
-91.8541
1186.55
-95.0492
1233.76
-95.3585
1281.92
-93.8368
1330.77
-93.2822
1379.74
-96.2553
1428
-100.451
1475.23
-98.1746
1522.34
-93.3299
1570.69
-94.0757
1619.06
-96.0799
1665.05
-96.0801
1708.02
-91.8804
1751.07
-84.9789
1797.64
-84.8102
1843.98
-87.4934
1885.27
-83.7573
1924.08
-79.6586
1964.28
-80.8669
2004.64
-81.5948
2043.53
-79.5579
2083.21
-78.8199
2125.06
-79.1041
2165.01
-74.3121
2197.77
-62.7026
2223.25
-54.8856
2245.15
-53.3996
2270
-52.444
2304.69
-58.4536
2343.3
-64.2657
2374.64
-57.6916
2398.11
-50.4648
2414.55
-44.0036
2426.63
-29.6553
2446.34
-25.6035
2474.76
-36.9308
2496.7
-41.0525
2506.28
-32.9216
2512.69
-29.8559
2519.37
-28.8682
2521.49
-0.672165
2530.34
23.1083
2557.67
-18.6893
2580.27
-79.8714
2573.13
-60.9689
2558.86
16.4308
2571.79
43.4299
2601.07
3.65585
2612.48
-32.3858
2587.68
-13.7332
2541.95
37.7865
2524.18
48.6214
2562.72
0.168035
2609.18
-27.4577
2593.75
11.8004
2533.18
34.143
2502.42
-2.53621
2521.76
-0.990093
2557.02
44.9864
2580.37
16.0833
2572.39
-66.4637
2524.3
-34.5215
2481.01
100.659
2504.14
110.396
2560.77
-35.9672
2556.26
-109.106
2490.01
-15.9611
2465.56
70.1108
2519.93
17.1522
2556.12
-44.1077
2502.31
19.3657
2419.77
123.698
2407.68
107.46
2471.22
-28.7425
2539.86
-142.68
2568.32
-145.882
2565.49
-49.662
2554.46
57.3926
2531.4
97.094
2493.76
64.684
2474.29
-12.4041
2504.31
-86.8201
2570.36
-105.35
2621.02
-57.6854
2617.73
19.493
2579.97
57.0391
2556.75
24.9674
2567.91
-28.6807
2594.04
-45.4619
2607.47
-19.5289
2600.34
12.9136
2582.8
29.0788
2562.61
39.6984
2536.92
53.121
2500.02
65.1945
2449.44
80.9185
2388.02
102.495
2320.94
118.623
2251.6
123.193
2173.66
138.265
2076.42
181.375
1955.88
236.862
1820.45
275.445
1683.82
281.804
1555.14
264.981
1438.03
241.479
1333.97
214.668
1242.55
186.393
1161.87
164.778
1090.07
146.725
1026.41
128.311
969.103
115.08
917.052
105.842
869.553
96.6456
826.056
87.9808
785.677
81.3954
747.403
77.1193
711.85
72.2213
678.738
67.0945
647.66
62.5552
618.416
58.9883
591.586
54.7192
565.931
51.3473
542.173
46.5114
520.751
42.5323
501.077
39.6558
482.607
36.9198
465.919
33.4358
450.306
31.2483
434.568
29.7918
419.495
27.5215
404.514
28.622
390.871
28.4602
377.859
27.3321
365.706
25.5577
353.342
25.3468
340.869
23.726
330.238
20.7715
319.895
20.271
309.848
18.8152
300.314
18.169
290.747
18.4772
280.177
21.2498
268.978
24.0018
258.307
22.6289
248.954
18.9052
240.942
15.9051
232.807
16.0042
224.314
16.998
215.839
16.7952
209.111
14.0328
204.612
10.9637
198.973
12.0701
191.352
12.9478
184.135
11.8338
179.682
9.1646
176.657
6.81515
172.116
8.36704
166.958
9.78385
161.236
10.2987
155.634
9.81973
151.243
8.30382
147.451
8.09406
144.938
7.68306
142.066
8.55432
137.004
11.2673
131.953
10.3526
126.392
10.0752
120.806
9.59588
117.24
6.71682
113.706
5.90527
109.838
5.81137
107.442
5.05283
105.618
5.97435
102.349
8.27743
99.4
6.62396
96.7859
5.66609
92.7802
6.09668
88.3051
6.68499
85.3255
6.45884
83.5193
6.32662
81.0525
6.40327
78.1044
4.54912
75.1014
4.27017
72.8322
3.57192
72.1209
1.05455
72.498
-0.356938
71.7256
2.73263
71.1099
2.55174
70.9628
1.6104
68.4541
4.12838
64.3767
5.79593
59.7727
8.60994
56.0398
7.74173
54.4466
3.45928
54.2139
0.127139
54.3474
-0.647614
52.9037
1.71652
50.4873
2.63399
51.2012
-1.18903
54.4967
-4.06486
56.3563
-1.85792
54.6125
3.39401
51.1803
5.97652
49.8815
1.5461
48.7323
0.691768
47.552
3.01153
47.3149
3.63791
45.4872
5.18614
41.9943
6.84752
39.7349
4.37342
38.7006
1.24207
36.4019
2.7483
34.9814
1.44214
36.0848
-1.69073
35.6315
1.07506
32.8838
4.22953
29.5069
5.24985
28.4874
2.79167
31.5142
-2.47679
33.7939
-2.04483
32.9695
0.925537
30.5435
2.55104
28.9883
2.91676
29.7792
0.897464
29.7698
1.64316
27.3356
3.98103
25.7147
1.36107
25.752
-0.165628
24.8208
3.10553
24.2743
2.08164
23.0642
2.65346
20.2032
4.70401
19.5482
0.244566
20.5206
-0.546209
19.9977
2.05737
17.3949
3.80769
14.9545
3.96036
13.8074
2.88783
11.7184
3.67164
10.137
1.73512
12.0555
-4.15534
15.4515
-5.83793
16.601
-2.31247
15.5569
-0.010622
14.8763
0.590116
15.0501
1.12107
13.4871
3.386
12.4256
2.35977
12.4079
0.628564
10.9617
1.70761
9.58074
1.36291
10.332
-0.87246
12.0096
-1.47927
11.0088
2.40255
8.13749
5.86871
6.51407
4.87162
5.65567
2.23787
4.21135
1.14686
3.9033
-0.971119
6.06505
-3.35943
9.23757
-3.8948
9.28813
0.320187
8.49886
1.77264
9.81448
-1.46752
10.3123
-1.58084
9.34169
0.160064
9.88281
-0.828931
9.85531
0.93897
7.55597
4.25774
5.74343
3.68442
3.84282
3.326
2.194
2.50618
2.06568
0.919541
1.8918
0.721943
1.83291
-0.228667
3.02949
-2.14272
5.62391
-5.57336
8.61954
-7.34194
9.3085
-2.00308
8.66081
1.59131
6.81376
3.45795
4.35249
4.63178
2.67499
2.80475
3.10135
-1.70869
2.16488
0.738583
1.36388
1.78552
2.23004
-0.299908
1.14556
1.86113
-1.40702
3.89466
-2.71105
2.8584
-0.249565
-2.68544
1.82367
-1.58932
1.38589
1.63709
-0.602339
2.88153
-2.37591
2.16839
-0.542511
-2.92218
1.3375
-3.57815
0.708936
-0.247551
0.430083
-0.94898
1.27462
-3.07075
3.75681
-5.98134
8.65596
-9.92756
13.9654
-9.22109
15.6663
-1.79844
14.1714
2.74955
11.2348
4.80182
8.38331
5.52144
5.60181
5.05479
4.07134
3.87528
4.58743
1.08215
3.74892
2.23096
4.01092
0.435496
4.59753
-0.643374
3.23282
1.02716
2.44074
0.00222258
2.65075
-0.65184
5.20957
-3.51626
8.66226
-4.00534
8.71524
0.632894
6.42452
3.05152
5.8079
0.0408075
6.75733
-2.73731
6.8247
-1.27722
7.03659
-0.223994
6.69934
1.55086
4.7917
3.25187
3.82568
1.26206
1.97053
2.38354
0.32093
1.48476
1.46213
-2.3617
3.37693
-2.30529
5.21431
-1.97509
6.50209
-1.39287
5.68725
1.91803
4.4704
2.71046
3.55934
2.23042
2.58875
1.70845
2.43848
0.999433
2.5934
0.75272
1.83632
1.40971
0.0744595
2.19926
-1.1669
1.36451
-1.11356
0.0398113
1.9526
-4.20389
4.8734
-3.91104
5.32093
-0.959087
5.58402
-1.25849
6.55042
-2.27245
7.14436
-1.90178
6.97963
-1.01252
8.33612
-3.7029
8.26609
0.00568329
6.77048
4.09632
6.53596
2.09239
6.19442
1.87969
4.99612
2.83053
2.42874
3.27414
-0.44559
3.30011
-0.918149
0.69277
-0.658239
0.589122
-1.11217
1.09684
-1.1016
-1.21775
-1.06536
-0.841364
1.01586
-2.85535
1.99345
-0.708618
0.335047
3.0442
-0.442303
1.57249
-2.1384
2.99377
-4.15286
3.35735
-4.2373
0.869464
-2.81351
-1.47788
-1.8036
-1.95743
-2.15107
-0.610881
-2.22827
-0.791855
-0.410216
-4.06486
1.22693
-4.4965
0.0607401
0.386325
-2.5629
4.30813
-3.54588
2.39148
-2.62025
-1.21372
0.111786
-4.71834
4.83615
-8.19572
7.36278
-4.10153
7.30305
-0.0145249
5.52146
2.2607
2.73458
3.87786
1.15946
3.46174
1.18601
1.43173
2.29466
-1.99707
3.12037
-2.66358
3.52851
-1.52901
3.42499
0.585618
3.24873
1.37742
2.20007
1.85929
1.28706
1.17269
0.392038
1.73741
-2.29337
4.71576
-4.69401
4.72839
-5.98347
4.12314
-5.47989
1.75122
-5.56404
1.28857
-6.39498
1.39968
-5.87974
-0.492786
-5.80024
-0.308619
-5.86566
-0.974539
-7.25939
1.44689
-7.52428
-0.230091
-5.93604
-3.9148
-5.56292
-1.78217
-2.66928
-5.06496
0.698564
-5.63508
2.3907
-3.60798
2.2112
-0.311978
1.04209
0.923474
0.536766
-0.583569
0.384343
-0.40906
1.59923
-2.58396
3.10806
-3.60446
4.34185
-3.72243
6.07033
-3.59639
7.28919
-1.60265
7.51837
-0.499614
6.72692
0.324391
5.63668
0.720725
5.52831
-0.197545
6.02674
0.325851
6.69823
0.553973
5.98826
2.3583
5.04247
3.51922
3.53733
4.73136
0.643547
4.9701
-0.263603
0.883362
-0.623216
0.429983
-2.67726
3.45932
-2.75649
1.46953
-1.75966
-0.676187
-2.70608
1.67118
-2.56102
-0.0117347
-2.19791
-1.34237
-2.47346
-0.721375
-1.79249
-2.0671
-0.540254
-3.49617
1.89665
-4.6663
2.73044
-0.984131
1.52687
1.8623
1.0928
1.95865
0.299023
2.94278
-2.21467
4.64598
-4.78307
4.40217
-7.78307
4.34668
-8.88139
1.44068
-6.52785
-4.31801
-5.1668
-2.14343
-1.31724
-5.47602
4.86354
-9.75477
6.57339
-3.01387
5.42871
0.629572
2.98738
2.76763
0.384437
4.03636
-1.79646
3.26083
-4.23655
3.47824
-6.57749
4.37386
-5.74593
-1.27806
-1.78426
-7.15272
-0.470744
-1.16658
-2.01816
4.15078
-3.78932
3.91686
-4.64407
1.85156
-4.0476
-1.46919
-3.52685
-2.58772
-4.03052
-0.911042
-3.33637
-1.89092
-2.10436
-1.85773
0.4067
-2.53952
2.51612
-0.844907
2.02
2.73386
0.453175
3.15767
-2.72874
5.45138
-3.36556
1.42603
-1.72946
-3.38677
-2.65304
0.200068
-4.36895
1.75199
-4.77785
0.416035
-7.70291
35.6318
-106.222
71.8627
-103.98
106.871
-105.57
142.387
-109.853
178.436
-106.106
213.585
-104.996
248.955
-112.057
284.257
-113.358
319.903
-110.741
356.983
-112.781
394.276
-110.688
433.359
-112.142
473.703
-116.228
513.179
-118.707
552.767
-125.104
592.423
-129.821
631.76
-126.944
670.236
-117.049
711.195
-118.052
755.507
-126.51
802.115
-134.809
849.29
-136.724
895.224
-134.792
939.393
-135.401
982.461
-136.883
1026.92
-138.846
1073.62
-138.187
1122.15
-139.902
1171.38
-143.791
1220.1
-143.575
1267.41
-140.642
1313.67
-139.035
1359.25
-141.323
1403.89
-144.578
1449.23
-142.987
1496.23
-139.813
1545.16
-142.486
1594.06
-144.474
1639.8
-141.308
1683.48
-135.041
1729.59
-130.572
1777.6
-132.309
1821.28
-130.662
1860.08
-122.044
1898.43
-117.495
1937.59
-119.513
1976.09
-119.577
2014.22
-117.154
2054.14
-118.191
2094.36
-118.77
2129.91
-109.305
2160.39
-92.6154
2188.35
-82.3125
2216.01
-80.537
2247.73
-83.6528
2283.18
-93.4129
2314.3
-94.8868
2340.45
-83.3345
2362.83
-72.3254
2376.97
-57.6059
2392.75
-44.8644
2421.18
-53.505
2449.37
-64.6533
2463.52
-54.7309
2472.29
-41.1796
2482.91
-39.9268
2485.91
-31.271
2489.14
-3.26476
2511.92
0.798651
2530.87
-37.3967
2515.44
-63.9898
2500.5
-45.1738
2526.65
-8.79354
2560.6
10.0636
2558.25
6.33048
2528.87
-2.47793
2498.19
17.6088
2490.98
45.6478
2524.74
15.4465
2564.79
-39.459
2551.03
-13.2948
2496.51
66.9127
2468.9
62.3503
2483.9
-17.003
2513.88
-30.1997
2538.12
21.2597
2524.51
29.8889
2457.43
0.994082
2402.74
21.1006
2442.24
62.2848
2523.7
29.3379
2512.39
-24.2387
2406.23
-2.48135
2347.64
43.6223
2406.04
12.6151
2479.3
-55.3421
2462.72
-26.9871
2393.44
89.6527
2368.75
149.294
2407.66
68.8763
2455.44
-76.0126
2475.71
-162.51
2474.17
-143.727
2463.2
-37.7289
2443.58
77.8379
2417.02
124.279
2407.69
74.4543
2437.53
-41.7539
2490.51
-139.303
2525.83
-140.417
2518.47
-49.9942
2488.14
50.1783
2475.88
69.5795
2491.5
9.4651
2514.06
-51.2561
2527.94
-59.5222
2533.85
-25.7108
2537.25
9.1983
2535.47
30.2808
2519.37
54.8781
2484.97
86.3241
2432.27
115.785
2363.53
146.529
2288.67
175.053
2217.18
186.587
2145.12
190.101
2058.51
220.44
1949.6
286.379
1824.55
356.82
1698.26
396.905
1579.81
396.584
1470.27
371.177
1370.99
338.023
1281.56
301.831
1200.28
265.884
1127.92
235.8
1062.59
211.043
1002.62
187.584
948.089
169.163
899.266
154.328
854.57
141.129
812.896
129.462
773.816
120.319
736.902
113.852
702.93
106.062
671.052
98.789
641.137
92.4003
613.053
86.9077
587.707
79.9937
562.282
76.6797
537.895
70.8456
516.444
63.8851
497.069
58.9299
479.24
54.7042
462.743
49.7822
446.75
47.117
430.551
45.9708
414.704
43.2233
399.019
44.2291
385.743
41.6688
373.802
39.203
362.211
37.0411
349.812
37.6733
337.18
36.3028
326.319
31.52
315.577
30.9371
304.934
29.324
295.087
28.0207
285.978
27.5822
275.94
31.2317
265.536
34.3222
255.754
32.3036
246.794
27.9106
239.328
23.3502
231.195
24.0822
222.158
25.9791
214.218
24.6514
208.488
19.6543
204.643
14.8181
199.4
17.242
191.832
20.3687
184.162
19.4375
178.609
14.6015
174.295
11.0714
169.384
13.2086
164.62
14.4244
158.564
16.262
152.041
16.3061
147.546
12.7567
144.479
11.152
143.344
8.75519
141.722
10.1148
137.061
15.8384
132.201
15.2188
126.495
15.7518
120.627
15.4683
116.374
10.9586
112.369
9.74833
108.757
9.5471
106.622
7.17732
105.451
7.19914
101.896
11.8524
98.9331
9.54685
97.1571
7.34466
93.3304
10.0266
88.4259
11.5577
85.2905
9.4919
83.9388
7.52282
82.0599
8.28458
79.283
7.39633
76.7295
6.88256
74.5631
5.74997
73.6415
1.90117
73.5971
-0.303797
71.2185
5.02679
69.6755
4.08442
70.3637
0.858256
69.1441
5.28983
65.5002
9.33476
60.8261
13.202
56.5026
12.0639
53.7834
6.16969
53.7059
0.125775
53.7969
-0.836761
51.5248
3.93532
48.8054
5.41713
49.3127
-1.67246
52.7969
-7.51929
55.1003
-4.11493
53.8798
4.63761
49.8829
10.0838
48.171
3.31867
47.768
1.21791
46.8124
4.03638
47.1234
3.44727
45.6776
6.8401
41.8183
10.8305
39.6508
6.57501
38.729
2.27239
35.8137
5.75491
33.8045
3.46732
34.5075
-2.42519
34.031
1.56774
31.1064
7.25053
27.4405
9.00352
26.7646
3.5754
29.7147
-5.37312
32.2041
-4.56564
32.0618
1.08169
29.4675
5.15389
28.1765
4.20629
29.8422
-0.764875
29.9476
1.59343
27.652
6.25793
26.5648
2.47657
25.9476
0.39947
23.8009
5.19203
23.2726
2.52834
22.1488
3.78305
19.2592
7.41265
19.3741
0.101187
20.883
-2.14631
20.6726
2.16956
18.6336
5.82103
16.8081
5.77716
15.4431
4.30695
12.7219
6.37295
11.0657
3.42592
12.7533
-5.76245
14.6681
-7.77838
14.0478
-1.6499
12.6226
1.31138
12.5712
0.727074
13.2474
0.430096
12.4413
4.15175
11.757
3.02255
11.877
0.48056
10.7678
2.8512
9.74298
2.41991
10.0016
-1.08774
11.1171
-2.63046
10.346
3.10282
7.94843
8.31303
6.71739
6.08446
5.94271
2.94631
4.98292
2.15641
5.98999
-1.95698
8.45987
-5.70571
10.3291
-5.7894
10.2094
0.430052
9.71379
2.26843
11.1869
-2.91413
11.6219
-1.92941
10.6005
1.40291
11.7469
-1.87569
11.6346
1.10837
8.98687
6.95254
7.74989
4.93052
6.36854
4.80604
5.18617
3.68189
5.21176
0.936033
4.3863
1.51191
4.57638
-0.359588
5.15501
-2.678
6.2451
-6.64049
9.27315
-10.3321
9.73055
-2.46515
8.53219
2.79592
6.85526
5.2346
3.50819
7.87921
1.3597
5.02141
1.97599
-2.37267
0.813725
1.92411
-0.405729
3.04647
0.451464
-1.21749
0.0641684
2.22955
-2.01519
6.03206
-3.33015
4.13601
-1.03592
-5.08267
1.34922
-4.01407
1.81372
1.20547
0.488513
4.14232
-0.759503
3.42592
1.00019
-4.75242
2.40524
-5.07285
1.56296
0.552502
1.27089
-0.663662
2.3166
-4.12161
4.00392
-7.64218
6.62112
-12.5356
10.6028
-13.2112
11.6102
-2.78893
9.85802
4.5957
7.44325
7.22425
5.15026
7.88926
3.04371
7.27896
2.03053
4.91244
3.40848
-0.270812
3.57695
2.07703
4.63994
-0.586044
6.03523
-1.99732
4.9297
2.17825
4.07355
0.929936
4.57224
-1.11849
6.57047
-5.47891
8.69398
-6.12399
8.55589
0.844425
5.97705
5.61932
4.74121
1.38716
6.02246
-3.83071
6.52171
-1.67148
6.51183
-0.149546
5.44239
2.6112
3.16094
5.56761
1.87941
2.54374
-0.659428
5.00282
-2.24878
3.03282
-0.487556
-4.06927
1.12266
-3.88534
2.52077
-3.45469
4.24922
-3.01481
4.20868
1.9609
3.4199
3.55343
2.47723
3.0293
2.06282
2.08591
2.13287
1.0183
2.13523
0.751413
1.68923
1.76023
0.61221
3.34886
-0.298666
2.23186
-0.0128828
-0.154054
2.78172
-6.91712
5.62587
-6.71141
6.36555
-1.70504
6.49934
-1.42807
7.47124
-3.23759
7.60147
-1.95373
7.35255
-0.656342
9.48148
-5.74294
9.49998
-0.0287682
7.55745
6.1185
6.69137
2.96348
6.55354
1.94647
6.05804
3.14371
2.94412
6.39121
-0.576317
6.75919
-0.577368
0.668702
-0.347321
0.331816
-1.44419
2.11817
-0.979033
-1.70915
-0.0785102
-1.8249
1.39682
-4.40658
1.32571
-0.663583
-0.0822009
4.40481
0.541173
0.927186
-0.292955
3.72675
-2.22244
5.21863
-2.02646
0.681124
-0.106178
-3.43471
1.73876
-3.81241
1.28198
-0.171319
-0.0838253
0.545333
0.482588
-4.64994
1.88326
-5.85327
0.93207
1.46513
-2.33696
7.73702
-3.63689
3.72085
-3.32338
-1.45182
-2.08614
-5.96979
2.26688
-12.5499
4.9685
-6.79598
5.06052
-0.156657
3.44354
3.85108
0.874759
6.501
-0.0378048
4.38754
-0.292967
1.69186
0.314257
-2.62785
1.80345
-4.25195
2.75598
-2.50709
2.66315
0.684005
1.63949
2.38115
0.286468
3.27414
0.500589
0.975397
0.476143
1.74293
-1.70981
6.90204
-3.7616
6.70305
-4.58863
4.91503
-3.39766
0.538175
-2.94501
0.79673
-3.03695
1.4343
-2.67792
-0.878813
-3.20172
0.153902
-3.00683
-1.26825
-4.76691
3.14077
-6.08357
1.03096
-4.71668
-5.35693
-4.77818
-1.80008
-2.89986
-7.06416
0.417295
-8.99979
2.13093
-5.28044
1.5901
0.14308
0.351665
2.0361
-0.232921
-0.100197
-0.736327
0.00857414
-0.10425
-3.25874
1.09047
-4.83751
2.45922
-5.12163
3.83917
-5.04475
4.47942
-2.32358
4.83253
-0.801398
4.29389
0.882005
3.68076
1.29228
4.2524
-0.892131
4.9691
-0.433155
5.77472
-0.302379
5.4819
2.67196
4.9123
4.11759
3.33814
6.19679
0.436019
7.79719
0.649416
0.654564
0.925936
0.153802
-1.75466
6.12243
-2.29089
1.98839
-0.884019
-2.1063
-1.08838
1.80588
-0.845618
-0.265434
-0.724833
-1.52567
-0.979582
-0.592125
-0.113657
-3.01997
1.82166
-5.42143
3.72599
-6.59241
3.40758
-0.723304
2.24012
3.026
1.47908
2.7575
0.7631
3.68397
-1.04031
6.49983
-3.36974
6.72765
-6.57348
7.58977
-7.26561
2.13269
-3.90113
-7.63176
-3.09636
-2.88475
-0.752242
-7.81583
4.93189
-15.4616
6.43388
-4.5714
5.08363
1.92746
3.27731
4.54272
1.49308
5.74303
-0.609485
5.28324
-3.96789
6.71543
-7.01787
7.22541
-6.13703
-2.23291
-2.56318
-10.6258
-2.07333
-1.65126
-4.31493
6.30913
-6.56659
6.08214
-7.21274
2.42593
-5.63581
-3.06173
-4.00962
-4.22517
-4.27951
-0.700088
-3.49588
-2.54636
-2.06727
-3.20754
-0.144015
-4.4616
2.31504
-3.24549
3.00453
2.15651
2.12639
4.16285
-0.871219
8.55014
-1.2638
1.90295
1.26883
-5.74997
0.678966
0.936994
-2.6447
5.15589
-4.70129
2.57596
-12.2601
34.2031
-139.993
69.6111
-138.955
103.991
-139.517
137.737
-143.166
172.94
-140.876
208.256
-139.882
242.38
-145.752
276.21
-146.759
311.639
-145.741
348.76
-149.476
386.5
-148.004
425.28
-150.499
464.609
-155.135
501.456
-155.134
537.205
-160.434
574.007
-166.2
614.985
-167.495
658.955
-160.589
703.032
-161.703
746.113
-169.169
788.907
-177.175
833.579
-180.957
878.416
-179.181
920.95
-177.481
962.635
-178.106
1007.05
-182.793
1054.95
-185.611
1104.6
-189.071
1153.61
-192.303
1201.42
-190.888
1248.82
-187.53
1296.58
-186.284
1344.88
-189.116
1392.55
-191.744
1439.28
-189.21
1485.47
-185.484
1531.92
-188.43
1578.12
-190.167
1624.21
-186.882
1671.29
-181.606
1718.74
-177.502
1764.31
-177.364
1806.2
-172.036
1846.63
-161.95
1888.67
-159.013
1931.33
-161.658
1971.32
-159.058
2008.24
-153.54
2044.75
-154.15
2081.44
-154.887
2116.2
-143.487
2149.11
-124.934
2181.55
-114.184
2214.42
-112.886
2243.97
-112.714
2265.79
-114.731
2288.28
-116.858
2319.67
-114.176
2346.42
-98.4984
2361.54
-72.135
2380.15
-62.9255
2403.68
-76.5216
2425.16
-85.6131
2447.17
-76.1882
2465.5
-58.9361
2471.03
-44.8545
2469.6
-29.2125
2482.24
-15.3533
2510.64
-27.1866
2520.24
-46.5563
2496.7
-39.898
2484.45
-32.2497
2508.83
-32.3964
2522.3
-2.6847
2494.51
34.7703
2469.38
23.2056
2489.07
-1.53273
2530.86
4.32996
2546.28
0.516963
2517.14
-9.67796
2468.21
36.1953
2452.4
83.3175
2482.99
32.3112
2507.03
-40.5431
2494.58
-17.0655
2468.73
47.7233
2438.56
60.38
2404.01
35.9211
2403.57
22.4751
2450.14
16.2264
2465.5
14.764
2400.49
41.2289
2338.06
60.5544
2362.24
20.4936
2415.5
-39.9587
2398.5
-37.4172
2335.81
36.3954
2321.67
104.835
2371.86
99.8531
2413.85
26.9897
2402.38
-64.3557
2360.25
-119.719
2319.62
-102.476
2302.15
-19.1388
2318.25
62.5302
2355.84
87.1024
2392.15
38.744
2409.22
-58.6088
2398.95
-128.773
2369.15
-110.131
2346.32
-26.7065
2359.27
37.5877
2404.67
24.477
2446.64
-32.3982
2461.35
-65.9845
2459.2
-57.3599
2459.63
-26.2802
2461.35
7.08697
2447.64
43.375
2412.81
88.3572
2365.48
131.897
2308.19
171.522
2239.6
211.971
2168.66
241.695
2102.26
250.454
2026.32
262.383
1926.14
315.029
1807.58
399.659
1686.95
472.57
1576.65
502.909
1477.4
492.523
1385.75
459.538
1302.14
419.13
1225.29
376.632
1153.84
335.787
1089.35
299.09
1030.18
269.385
974.739
242.431
924.098
219.401
878.697
199.5
836.69
182.97
797.013
169.023
759.628
157.57
724.456
148.909
691.842
138.516
661.14
129.361
632.208
121.069
605.473
113.565
581.617
103.702
556.816
101.477
532.404
95.1637
511.228
85.0227
491.807
78.3119
474.232
72.1909
457.789
66.222
441.444
63.4874
425.657
61.8529
410.693
58.1494
394.569
60.2035
380.64
55.4492
369.338
50.3748
357.623
48.6924
344.754
50.4671
332.726
48.2519
322.047
42.1976
310.564
42.3868
299.518
40.2727
289.871
37.5466
281.541
35.8504
272.329
40.3726
262.499
44.1875
253.312
41.5144
244.863
36.4859
237.651
30.4983
229.444
32.1767
220.338
34.8524
213.264
31.5921
208.26
24.6099
203.546
19.3915
197.97
22.8252
191.705
26.6657
184.588
26.3131
177.493
21.6548
170.961
17.3045
165.624
18.3441
161.706
18.2791
156.579
21.3195
150.146
22.5928
145.069
17.7827
142.243
13.924
141.339
9.59817
139.91
11.5234
136.224
19.5087
131.505
19.9238
125.706
21.5365
120.075
20.9923
115.25
15.6943
110.896
14.2693
107.896
12.4308
106.394
8.68501
104.832
8.7511
101.363
15.3055
98.9071
12.203
96.9706
9.51742
93.1669
13.4607
88.8185
15.7322
85.8323
12.365
84.6961
8.43944
83.1531
9.50238
80.9396
9.56291
79.1967
8.5493
76.809
8.05464
74.3064
4.35317
73.5891
0.284279
71.4524
7.07491
68.3222
7.07826
67.7103
1.48122
67.7636
4.99187
66.0675
10.9341
62.0078
17.2457
57.5966
16.467