/*--------------------------------*- C++ -*----------------------------------*\
| =========                 |                                                 |
| \\      /  F ield         | OpenFOAM: The Open Source CFD Toolbox           |
|  \\    /   O peration     | Version:  v2012                                 |
|   \\  /    A nd           | Website:  www.openfoam.com                      |
|    \\/     M anipulation  |                                                 |
\*---------------------------------------------------------------------------*/
FoamFile
{
    version     2.0;
    format      ascii;
    class       volScalarField;
    location    "400";
    object      T;
}
// * * * * * * * * * * * * * * * * * * * * * * * * * * * * * * * * * * * * * //

dimensions      [0 0 0 1 0 0 0];


internalField   nonuniform List<scalar> 
65536
(
292.636
292.637
292.639
292.643
292.647
292.651
292.657
292.663
292.67
292.677
292.685
292.694
292.703
292.713
292.723
292.732
292.741
292.748
292.756
292.765
292.775
292.784
292.794
292.803
292.811
292.819
292.826
292.832
292.837
292.842
292.845
292.848
292.851
292.852
292.852
292.851
292.848
292.845
292.84
292.834
292.826
292.818
292.809
292.801
292.791
292.78
292.768
292.755
292.741
292.726
292.71
292.693
292.675
292.656
292.637
292.615
292.593
292.57
292.547
292.523
292.5
292.475
292.448
292.421
292.396
292.37
292.343
292.317
292.291
292.259
292.227
292.198
292.172
292.14
292.097
292.059
292.027
291.999
291.969
291.934
291.899
291.867
291.836
291.804
291.771
291.735
291.693
291.652
291.617
291.589
291.545
291.486
291.435
291.395
291.357
291.303
291.244
291.192
291.147
291.1
291.044
290.994
290.957
290.926
290.897
290.861
290.823
290.789
290.76
290.737
290.72
290.709
290.707
290.711
290.725
290.756
290.811
290.889
290.995
291.139
291.339
291.608
291.954
292.384
292.877
293.433
294.04
294.684
295.346
296.003
296.627
297.194
297.694
298.119
298.466
298.736
298.929
299.056
299.136
299.188
299.222
299.242
299.255
299.263
299.265
299.264
299.257
299.25
299.241
299.232
299.224
299.216
299.213
299.209
299.211
299.215
299.22
299.224
299.23
299.235
299.239
299.243
299.246
299.246
299.245
299.242
299.243
299.242
299.243
299.244
299.244
299.243
299.243
299.243
299.243
299.244
299.246
299.248
299.25
299.251
299.253
299.253
299.253
299.255
299.254
299.254
299.254
299.255
299.256
299.258
299.26
299.262
299.264
299.267
299.27
299.271
299.273
299.274
299.273
299.273
299.271
299.267
299.262
299.255
299.247
299.24
299.231
299.225
299.216
299.214
299.212
299.214
299.218
299.221
299.223
299.225
299.225
299.225
299.225
299.223
299.219
299.214
299.212
299.208
299.208
299.208
299.21
299.212
299.213
299.216
299.219
299.223
299.225
299.229
299.232
299.236
299.241
299.244
299.246
299.248
299.25
299.247
299.246
299.243
299.241
299.239
299.238
299.237
299.237
299.236
299.236
299.236
299.237
299.239
299.241
299.243
299.243
299.244
299.244
299.244
299.243
299.242
299.242
299.242
299.24
299.237
299.234
299.229
299.227
299.227
299.229
299.235
299.241
299.251
299.258
299.264
299.267
299.27
299.27
299.27
299.268
299.265
299.26
299.256
299.251
299.248
299.246
299.244
299.242
299.239
299.233
299.227
299.221
299.214
299.212
299.212
299.212
299.212
299.21
299.208
299.206
299.206
299.205
299.205
299.206
299.206
299.205
299.205
299.204
299.203
299.201
299.203
299.205
299.209
299.213
299.217
299.219
299.222
299.223
299.222
299.222
299.221
299.222
299.224
299.226
299.228
299.23
299.235
299.237
299.241
299.244
299.246
299.246
299.248
299.247
299.246
299.244
299.241
299.238
299.237
299.234
299.233
299.232
299.233
299.234
299.237
299.239
299.239
299.238
299.238
299.24
299.242
299.245
299.249
299.252
299.254
299.255
299.256
299.256
299.256
299.257
299.259
299.263
299.265
299.267
299.267
299.267
299.266
299.265
299.263
299.26
299.259
299.255
299.254
299.251
299.249
299.248
299.25
299.256
299.262
299.27
299.279
299.286
299.291
299.294
299.294
299.293
299.29
299.286
299.282
299.277
299.274
299.272
299.27
299.266
299.264
299.262
299.259
299.256
299.254
299.254
299.254
299.255
299.257
299.261
299.264
299.266
299.266
299.265
299.262
299.259
299.255
299.252
299.248
299.247
299.246
299.247
299.25
299.251
299.252
299.253
299.252
299.251
299.252
299.252
299.254
299.255
299.255
299.256
299.257
299.258
299.259
299.26
299.261
299.262
299.259
299.256
299.253
299.248
299.247
299.246
299.246
299.243
299.238
299.231
299.224
299.219
299.213
299.21
299.21
299.211
299.211
299.217
299.222
299.231
299.238
299.248
299.256
299.263
299.268
299.27
299.272
299.273
299.272
299.271
299.27
299.269
299.265
299.261
299.256
299.252
299.247
299.244
299.242
299.242
299.246
299.248
299.252
299.255
299.258
299.261
299.262
299.265
299.267
299.266
299.266
299.268
299.266
299.265
299.264
299.261
299.26
299.257
299.255
299.252
299.249
299.245
299.242
299.24
299.238
299.238
299.24
299.239
299.237
299.234
299.23
299.225
299.221
299.213
299.207
299.202
299.199
292.527
292.527
292.531
292.535
292.537
292.542
292.55
292.557
292.563
292.571
292.578
292.586
292.597
292.609
292.621
292.633
292.642
292.65
292.66
292.671
292.683
292.694
292.705
292.716
292.726
292.735
292.742
292.75
292.756
292.761
292.765
292.769
292.772
292.775
292.775
292.773
292.77
292.767
292.762
292.755
292.745
292.735
292.726
292.717
292.705
292.693
292.681
292.666
292.65
292.632
292.613
292.593
292.572
292.553
292.53
292.505
292.484
292.464
292.442
292.419
292.391
292.358
292.331
292.312
292.291
292.265
292.236
292.201
292.16
292.144
292.141
292.111
292.049
291.988
291.975
291.962
291.931
291.89
291.844
291.808
291.787
291.767
291.739
291.703
291.656
291.606
291.578
291.544
291.511
291.459
291.399
291.36
291.321
291.288
291.232
291.171
291.106
291.056
291.006
290.96
290.915
290.876
290.838
290.797
290.75
290.714
290.686
290.658
290.625
290.596
290.573
290.57
290.568
290.571
290.584
290.607
290.653
290.736
290.844
290.968
291.13
291.368
291.71
292.151
292.666
293.246
293.884
294.559
295.249
295.934
296.572
297.135
297.62
298.024
298.351
298.602
298.786
298.915
298.997
299.043
299.072
299.101
299.114
299.119
299.124
299.118
299.118
299.107
299.099
299.084
299.069
299.066
299.058
299.066
299.067
299.065
299.067
299.081
299.087
299.094
299.1
299.101
299.101
299.105
299.1
299.101
299.091
299.097
299.101
299.104
299.104
299.098
299.093
299.096
299.103
299.107
299.108
299.109
299.11
299.111
299.11
299.112
299.109
299.101
299.106
299.11
299.113
299.115
299.113
299.106
299.115
299.12
299.127
299.126
299.128
299.134
299.132
299.13
299.134
299.134
299.13
299.129
299.12
299.116
299.11
299.099
299.088
299.069
299.072
299.061
299.069
299.073
299.077
299.081
299.089
299.087
299.087
299.089
299.086
299.083
299.077
299.072
299.059
299.065
299.066
299.067
299.063
299.061
299.07
299.075
299.074
299.07
299.083
299.083
299.092
299.097
299.097
299.101
299.108
299.108
299.105
299.11
299.104
299.106
299.101
299.099
299.094
299.094
299.093
299.095
299.092
299.09
299.094
299.097
299.1
299.101
299.106
299.104
299.102
299.101
299.099
299.104
299.104
299.1
299.099
299.095
299.091
299.091
299.084
299.077
299.083
299.091
299.102
299.105
299.116
299.122
299.132
299.133
299.135
299.132
299.13
299.123
299.118
299.105
299.106
299.104
299.1
299.104
299.103
299.099
299.096
299.087
299.074
299.071
299.066
299.071
299.072
299.069
299.068
299.068
299.064
299.058
299.062
299.067
299.063
299.059
299.066
299.065
299.066
299.061
299.059
299.055
299.064
299.068
299.078
299.079
299.081
299.081
299.08
299.081
299.081
299.086
299.085
299.084
299.087
299.087
299.094
299.091
299.097
299.099
299.101
299.104
299.108
299.107
299.107
299.106
299.102
299.1
299.1
299.095
299.091
299.086
299.083
299.087
299.095
299.098
299.1
299.1
299.098
299.092
299.095
299.103
299.109
299.107
299.111
299.112
299.115
299.114
299.114
299.115
299.115
299.119
299.12
299.123
299.126
299.126
299.125
299.126
299.123
299.119
299.121
299.115
299.117
299.108
299.108
299.108
299.107
299.104
299.102
299.116
299.128
299.136
299.144
299.15
299.154
299.152
299.15
299.147
299.142
299.133
299.132
299.127
299.126
299.123
299.124
299.122
299.12
299.118
299.119
299.117
299.112
299.11
299.106
299.116
299.119
299.125
299.129
299.128
299.126
299.125
299.115
299.112
299.109
299.106
299.106
299.107
299.105
299.098
299.104
299.109
299.11
299.111
299.112
299.104
299.111
299.11
299.114
299.118
299.116
299.114
299.117
299.12
299.121
299.122
299.117
299.12
299.118
299.108
299.108
299.1
299.103
299.104
299.102
299.097
299.09
299.079
299.067
299.07
299.07
299.067
299.066
299.07
299.063
299.073
299.078
299.098
299.108
299.117
299.122
299.127
299.135
299.134
299.131
299.135
299.135
299.132
299.127
299.125
299.118
299.109
299.096
299.096
299.094
299.1
299.099
299.093
299.101
299.107
299.115
299.115
299.118
299.121
299.119
299.119
299.126
299.12
299.114
299.12
299.122
299.119
299.119
299.112
299.116
299.116
299.113
299.11
299.107
299.097
299.091
299.088
299.095
299.094
299.099
299.099
299.095
299.091
299.081
299.07
299.07
299.064
299.058
299.047
292.397
292.398
292.401
292.406
292.41
292.416
292.425
292.434
292.442
292.451
292.46
292.472
292.486
292.501
292.516
292.531
292.544
292.557
292.572
292.588
292.605
292.621
292.636
292.65
292.663
292.675
292.686
292.696
292.705
292.713
292.718
292.723
292.728
292.731
292.731
292.729
292.726
292.722
292.715
292.706
292.695
292.683
292.67
292.656
292.64
292.625
292.608
292.59
292.568
292.545
292.518
292.489
292.461
292.435
292.41
292.385
292.36
292.333
292.305
292.274
292.239
292.204
292.176
292.152
292.125
292.092
292.057
292.013
291.973
291.962
291.963
291.916
291.835
291.774
291.756
291.739
291.694
291.644
291.598
291.567
291.551
291.522
291.475
291.441
291.392
291.337
291.324
291.327
291.276
291.191
291.122
291.122
291.103
291.026
290.963
290.895
290.848
290.791
290.687
290.665
290.654
290.63
290.581
290.513
290.471
290.437
290.407
290.375
290.349
290.315
290.298
290.272
290.26
290.253
290.261
290.295
290.349
290.408
290.484
290.601
290.779
291.034
291.38
291.833
292.343
292.935
293.592
294.314
295.028
295.776
296.451
296.996
297.465
297.845
298.149
298.379
298.544
298.653
298.725
298.775
298.803
298.816
298.836
298.847
298.845
298.843
298.828
298.821
298.81
298.801
298.789
298.773
298.769
298.766
298.771
298.779
298.778
298.78
298.8
298.808
298.81
298.82
298.828
298.822
298.817
298.799
298.796
298.806
298.816
298.817
298.814
298.811
298.807
298.812
298.81
298.809
298.814
298.82
298.827
298.829
298.829
298.824
298.822
298.826
298.822
298.821
298.82
298.82
298.823
298.832
298.829
298.832
298.831
298.846
298.847
298.84
298.847
298.849
298.852
298.849
298.853
298.842
298.837
298.82
298.811
298.805
298.791
298.782
298.763
298.775
298.775
298.783
298.793
298.804
298.795
298.803
298.801
298.798
298.803
298.803
298.799
298.783
298.776
298.767
298.767
298.773
298.778
298.776
298.781
298.784
298.792
298.792
298.786
298.795
298.796
298.802
298.81
298.81
298.813
298.821
298.824
298.811
298.816
298.809
298.814
298.813
298.818
298.815
298.817
298.809
298.81
298.808
298.809
298.808
298.813
298.816
298.807
298.81
298.813
298.809
298.814
298.801
298.807
298.821
298.822
298.821
298.814
298.799
298.792
298.783
298.789
298.793
298.805
298.825
298.834
298.845
298.84
298.841
298.838
298.845
298.843
298.843
298.827
298.818
298.813
298.814
298.817
298.819
298.821
298.823
298.813
298.802
298.79
298.767
298.781
298.784
298.789
298.793
298.788
298.775
298.77
298.765
298.774
298.774
298.779
298.777
298.776
298.783
298.781
298.773
298.764
298.752
298.761
298.778
298.778
298.787
298.791
298.795
298.794
298.789
298.789
298.779
298.784
298.791
298.794
298.8
298.793
298.804
298.805
298.813
298.82
298.823
298.819
298.821
298.823
298.824
298.819
298.812
298.805
298.807
298.804
298.797
298.786
298.795
298.799
298.809
298.816
298.812
298.806
298.805
298.811
298.811
298.81
298.823
298.823
298.831
298.83
298.834
298.83
298.823
298.825
298.824
298.838
298.84
298.843
298.847
298.844
298.837
298.84
298.837
298.829
298.827
298.815
298.825
298.818
298.81
298.805
298.808
298.82
298.827
298.844
298.859
298.868
298.868
298.872
298.875
298.871
298.865
298.854
298.851
298.841
298.841
298.839
298.838
298.832
298.833
298.831
298.829
298.819
298.823
298.828
298.822
298.822
298.825
298.839
298.843
298.842
298.843
298.839
298.83
298.832
298.821
298.81
298.811
298.811
298.809
298.809
298.816
298.823
298.829
298.83
298.826
298.814
298.823
298.818
298.825
298.827
298.824
298.829
298.832
298.829
298.829
298.833
298.834
298.84
298.831
298.825
298.824
298.805
298.803
298.81
298.819
298.821
298.814
298.802
298.794
298.787
298.773
298.769
298.779
298.779
298.768
298.775
298.785
298.799
298.807
298.822
298.83
298.842
298.848
298.843
298.847
298.85
298.841
298.841
298.847
298.849
298.841
298.838
298.828
298.821
298.811
298.811
298.805
298.806
298.815
298.816
298.824
298.824
298.832
298.832
298.827
298.832
298.831
298.819
298.828
298.835
298.835
298.836
298.835
298.828
298.832
298.828
298.826
298.821
298.81
298.802
298.805
298.801
298.799
298.8
298.814
298.812
298.806
298.804
298.797
298.796
298.797
298.786
298.781
298.769
298.767
292.402
292.403
292.407
292.412
292.417
292.425
292.435
292.445
292.456
292.467
292.48
292.494
292.511
292.528
292.547
292.565
292.582
292.597
292.614
292.635
292.658
292.677
292.695
292.711
292.727
292.742
292.755
292.767
292.778
292.787
292.793
292.799
292.803
292.806
292.807
292.806
292.802
292.796
292.788
292.776
292.763
292.748
292.733
292.715
292.696
292.677
292.659
292.637
292.612
292.584
292.553
292.517
292.482
292.451
292.423
292.396
292.367
292.332
292.295
292.254
292.212
292.177
292.145
292.108
292.068
292.025
291.977
291.931
291.897
291.874
291.837
291.788
291.725
291.656
291.594
291.544
291.497
291.453
291.415
291.369
291.316
291.268
291.225
291.185
291.139
291.081
291.043
291.037
290.981
290.92
290.857
290.825
290.786
290.693
290.639
290.563
290.489
290.423
290.341
290.326
290.331
290.314
290.256
290.132
290.072
290.026
290.029
290.01
289.981
289.958
289.914
289.889
289.862
289.859
289.868
289.88
289.903
289.957
290.051
290.205
290.436
290.747
291.112
291.585
292.133
292.757
293.4
294.178
294.968
295.652
296.303
296.817
297.259
297.614
297.89
298.095
298.242
298.341
298.394
298.412
298.402
298.455
298.472
298.474
298.475
298.457
298.445
298.442
298.429
298.403
298.363
298.376
298.344
298.383
298.395
298.382
298.355
298.402
298.416
298.425
298.427
298.435
298.437
298.445
298.432
298.414
298.363
298.408
298.43
298.446
298.447
298.424
298.386
298.413
298.434
298.436
298.444
298.446
298.444
298.448
298.448
298.446
298.435
298.397
298.423
298.44
298.444
298.444
298.433
298.404
298.438
298.457
298.468
298.462
298.465
298.471
298.467
298.47
298.468
298.479
298.473
298.474
298.461
298.447
298.418
298.421
298.408
298.345
298.36
298.342
298.375
298.388
298.411
298.416
298.432
298.421
298.413
298.416
298.429
298.43
298.412
298.394
298.346
298.381
298.392
298.394
298.384
298.354
298.399
298.414
298.397
298.365
298.399
298.4
298.415
298.419
298.418
298.425
298.437
298.439
298.434
298.443
298.431
298.425
298.424
298.424
298.423
298.432
298.43
298.435
298.424
298.416
298.424
298.435
298.437
298.437
298.441
298.437
298.432
298.436
298.425
298.43
298.438
298.435
298.437
298.431
298.428
298.423
298.4
298.353
298.391
298.413
298.42
298.429
298.45
298.455
298.471
298.464
298.458
298.463
298.474
298.463
298.443
298.394
298.426
298.423
298.414
298.432
298.45
298.452
298.45
298.43
298.393
298.348
298.381
298.407
298.414
298.407
298.399
298.4
298.385
298.339
298.384
298.405
298.397
298.367
298.408
298.415
298.409
298.402
298.376
298.326
298.383
298.4
298.417
298.409
298.394
298.41
298.412
298.4
298.401
298.409
298.406
298.414
298.422
298.418
298.419
298.412
298.418
298.427
298.434
298.439
298.442
298.444
298.443
298.441
298.435
298.423
298.429
298.424
298.417
298.399
298.356
298.397
298.415
298.435
298.443
298.446
298.427
298.39
298.416
298.436
298.442
298.441
298.448
298.445
298.452
298.444
298.442
298.438
298.414
298.437
298.45
298.47
298.471
298.463
298.461
298.465
298.452
298.448
298.447
298.434
298.432
298.428
298.433
298.431
298.416
298.391
298.385
298.435
298.456
298.473
298.488
298.501
298.494
298.487
298.481
298.478
298.469
298.44
298.448
298.441
298.443
298.435
298.43
298.445
298.451
298.446
298.452
298.452
298.445
298.436
298.397
298.438
298.446
298.457
298.471
298.468
298.462
298.451
298.439
298.44
298.427
298.409
298.422
298.431
298.426
298.388
298.429
298.446
298.449
298.439
298.431
298.404
298.428
298.437
298.445
298.45
298.446
298.436
298.433
298.451
298.459
298.459
298.45
298.457
298.452
298.434
298.424
298.389
298.431
298.45
298.449
298.436
298.416
298.395
298.359
298.384
298.39
298.389
298.391
298.389
298.342
298.38
298.372
298.424
298.443
298.459
298.465
298.466
298.474
298.47
298.457
298.456
298.467
298.465
298.464
298.47
298.455
298.428
298.384
298.402
298.395
298.422
298.422
298.39
298.424
298.438
298.452
298.446
298.44
298.442
298.437
298.434
298.438
298.426
298.412
298.439
298.453
298.456
298.45
298.421
298.448
298.46
298.453
298.441
298.427
298.413
298.4
298.37
298.413
298.422
298.429
298.419
298.417
298.409
298.404
298.381
298.403
298.402
298.385
298.334
292.492
292.494
292.497
292.503
292.51
292.519
292.53
292.542
292.555
292.569
292.585
292.602
292.619
292.64
292.661
292.681
292.7
292.718
292.74
292.764
292.791
292.82
292.838
292.853
292.872
292.893
292.912
292.929
292.944
292.953
292.959
292.965
292.976
292.984
292.983
292.977
292.976
292.972
292.963
292.95
292.934
292.917
292.894
292.868
292.849
292.834
292.81
292.783
292.76
292.731
292.685
292.63
292.583
292.549
292.522
292.497
292.464
292.422
292.368
292.305
292.256
292.225
292.191
292.141
292.083
292.023
291.966
291.914
291.88
291.845
291.795
291.735
291.663
291.577
291.502
291.451
291.407
291.353
291.287
291.221
291.164
291.125
291.1
291.062
290.97
290.88
290.83
290.782
290.762
290.696
290.604
290.528
290.471
290.445
290.377
290.267
290.159
290.109
290.097
290.055
290.021
289.974
289.903
289.758
289.662
289.597
289.587
289.595
289.573
289.52
289.472
289.398
289.347
289.341
289.357
289.375
289.417
289.513
289.667
289.874
290.139
290.468
290.894
291.364
291.914
292.59
293.288
294.041
294.838
295.517
296.122
296.607
297.015
297.337
297.581
297.762
297.881
297.94
297.968
298.001
297.961
298.016
298.045
298.054
298.041
298.013
297.959
297.991
297.987
297.963
297.901
297.932
297.886
297.924
297.94
297.943
297.894
297.93
297.976
297.98
297.943
297.987
298.006
298.006
297.991
297.932
297.899
297.967
297.997
298.004
297.994
297.98
297.934
297.978
297.978
297.948
297.98
297.984
298.001
298.002
297.993
298.002
297.982
297.912
297.974
297.978
297.97
297.979
297.973
297.916
297.986
298
297.987
298.016
298.016
298
298.008
297.993
298.022
298.03
298.041
298.025
298.001
297.957
297.914
297.969
297.951
297.863
297.861
297.861
297.927
297.911
297.967
297.987
297.96
297.977
297.935
297.931
297.986
297.991
297.972
297.946
297.868
297.891
297.913
297.941
297.948
297.905
297.964
297.968
297.955
297.894
297.937
297.923
297.949
297.956
297.967
297.94
297.969
297.985
297.987
297.952
297.97
297.931
297.969
297.973
297.976
297.98
297.989
297.982
297.974
297.945
297.973
297.973
297.986
297.985
297.946
297.959
297.974
297.957
297.961
297.928
297.937
297.987
298.004
298.003
297.994
297.979
297.96
297.903
297.939
297.927
297.945
297.973
297.998
298.018
298.007
298
297.964
298.011
298.018
298.029
298.003
297.937
297.973
297.967
297.933
297.985
298.006
298.016
298.01
297.996
297.97
297.924
297.955
297.969
297.971
297.961
297.956
297.925
297.939
297.895
297.956
297.957
297.969
297.926
297.972
297.981
297.968
297.942
297.939
297.885
297.926
297.955
297.934
297.95
297.901
297.96
297.955
297.904
297.937
297.905
297.903
297.943
297.937
297.955
297.924
297.948
297.927
297.969
297.978
297.991
297.986
297.987
298.002
298.006
297.988
297.937
297.944
297.971
297.968
297.958
297.91
297.949
297.926
297.986
298.007
298.004
297.989
297.942
297.983
297.982
297.954
297.99
297.995
298.001
298
297.997
297.996
297.97
297.915
297.958
297.996
298.007
298.017
298.016
298.001
297.991
297.992
297.983
297.982
297.981
297.929
297.97
297.962
297.965
297.946
297.897
297.9
297.984
298.026
298.045
298.047
298.042
298.045
298.032
298.035
298.035
298.008
297.959
297.98
297.963
297.989
297.984
297.928
297.981
297.995
297.983
297.962
297.993
298.007
297.992
297.936
297.991
298.014
298.022
298.022
298.026
298.007
297.96
297.989
297.979
297.958
297.913
297.958
297.959
297.966
297.924
297.995
298.016
298.014
297.995
297.945
297.911
297.962
297.988
297.988
297.97
297.988
297.988
297.944
297.984
298
298.004
298.004
297.994
297.99
297.983
297.946
297.941
297.992
298.012
298.013
297.992
297.947
297.95
297.886
297.914
297.9
297.95
297.955
297.922
297.881
297.942
297.91
297.979
297.998
297.985
298.009
298.023
298.005
298.015
298.009
297.957
297.997
298.015
298.013
298.01
298.004
297.984
297.904
297.934
297.903
297.96
297.968
297.919
297.972
297.997
298
298.002
297.99
297.952
297.974
297.965
297.932
297.96
297.926
297.982
297.997
297.983
297.99
297.96
298.008
298.005
297.991
297.955
297.92
297.952
297.939
297.899
297.958
297.983
297.981
297.932
297.963
297.923
297.956
297.917
297.962
297.966
297.942
297.874
292.661
292.663
292.669
292.677
292.684
292.695
292.711
292.727
292.742
292.762
292.781
292.805
292.833
292.853
292.88
292.91
292.939
292.957
292.977
293.007
293.043
293.076
293.097
293.114
293.134
293.157
293.176
293.193
293.207
293.216
293.221
293.227
293.237
293.243
293.24
293.232
293.227
293.22
293.208
293.193
293.175
293.154
293.126
293.095
293.073
293.053
293.023
292.989
292.96
292.926
292.876
292.817
292.763
292.722
292.687
292.652
292.611
292.565
292.508
292.431
292.365
292.328
292.286
292.233
292.17
292.091
292.014
291.958
291.915
291.867
291.808
291.741
291.644
291.537
291.449
291.388
291.361
291.312
291.21
291.111
291.039
290.992
290.964
290.899
290.796
290.713
290.659
290.616
290.563
290.453
290.354
290.301
290.265
290.207
290.098
289.996
289.932
289.842
289.779
289.709
289.662
289.596
289.517
289.42
289.298
289.213
289.133
289.135
289.106
289.05
288.956
288.862
288.819
288.811
288.835
288.894
288.994
289.13
289.307
289.552
289.857
290.215
290.666
291.201
291.789
292.439
293.186
293.999
294.734
295.365
295.926
296.366
296.738
297.023
297.239
297.387
297.48
297.528
297.501
297.563
297.585
297.582
297.579
297.556
297.553
297.486
297.466
297.509
297.484
297.468
297.508
297.503
297.485
297.445
297.467
297.457
297.467
297.442
297.492
297.489
297.441
297.484
297.478
297.518
297.504
297.447
297.486
297.481
297.489
297.521
297.525
297.487
297.501
297.476
297.502
297.454
297.492
297.46
297.492
297.497
297.46
297.502
297.509
297.503
297.456
297.472
297.428
297.478
297.491
297.464
297.498
297.511
297.468
297.508
297.502
297.471
297.493
297.446
297.505
297.535
297.535
297.539
297.516
297.447
297.431
297.492
297.508
297.498
297.418
297.475
297.473
297.447
297.493
297.474
297.448
297.497
297.473
297.463
297.525
297.521
297.457
297.477
297.455
297.378
297.39
297.438
297.463
297.503
297.504
297.508
297.466
297.495
297.484
297.461
297.463
297.434
297.458
297.441
297.475
297.471
297.441
297.421
297.467
297.429
297.467
297.428
297.418
297.458
297.47
297.49
297.468
297.493
297.489
297.474
297.491
297.486
297.422
297.433
297.467
297.435
297.451
297.406
297.409
297.489
297.496
297.477
297.477
297.474
297.493
297.499
297.469
297.402
297.404
297.427
297.49
297.481
297.513
297.499
297.449
297.49
297.533
297.528
297.524
297.529
297.507
297.457
297.455
297.497
297.527
297.539
297.535
297.505
297.458
297.455
297.453
297.485
297.483
297.443
297.44
297.428
297.486
297.512
297.481
297.466
297.516
297.534
297.53
297.521
297.478
297.443
297.464
297.493
297.452
297.47
297.423
297.466
297.43
297.482
297.469
297.395
297.439
297.39
297.398
297.449
297.417
297.46
297.406
297.434
297.414
297.469
297.442
297.48
297.455
297.452
297.467
297.499
297.5
297.449
297.431
297.477
297.452
297.49
297.501
297.479
297.435
297.501
297.515
297.524
297.504
297.506
297.499
297.502
297.447
297.49
297.492
297.486
297.498
297.462
297.485
297.485
297.436
297.431
297.498
297.514
297.523
297.507
297.472
297.487
297.469
297.434
297.466
297.447
297.404
297.445
297.429
297.477
297.447
297.449
297.507
297.524
297.536
297.534
297.534
297.554
297.542
297.488
297.493
297.532
297.534
297.505
297.505
297.492
297.497
297.462
297.415
297.488
297.505
297.456
297.437
297.484
297.493
297.521
297.53
297.504
297.483
297.494
297.511
297.52
297.508
297.443
297.461
297.48
297.445
297.427
297.458
297.446
297.507
297.526
297.51
297.519
297.514
297.484
297.43
297.445
297.452
297.463
297.477
297.434
297.484
297.467
297.452
297.5
297.505
297.484
297.46
297.489
297.479
297.465
297.436
297.483
297.53
297.549
297.539
297.51
297.472
297.49
297.488
297.423
297.398
297.435
297.457
297.441
297.506
297.512
297.53
297.52
297.502
297.449
297.512
297.519
297.484
297.517
297.48
297.443
297.494
297.48
297.467
297.516
297.517
297.494
297.501
297.443
297.444
297.507
297.524
297.517
297.475
297.482
297.497
297.471
297.466
297.425
297.454
297.418
297.395
297.449
297.463
297.492
297.504
297.455
297.528
297.537
297.54
297.532
297.488
297.423
297.39
297.424
297.417
297.474
297.488
297.456
297.485
297.446
297.477
297.446
297.495
297.508
297.509
297.512
297.508
297.512
292.884
292.886
292.892
292.9
292.908
292.92
292.937
292.954
292.971
292.992
293.014
293.04
293.069
293.092
293.12
293.151
293.179
293.203
293.226
293.255
293.285
293.311
293.335
293.356
293.375
293.391
293.405
293.417
293.427
293.435
293.441
293.443
293.443
293.442
293.437
293.429
293.417
293.403
293.388
293.369
293.347
293.32
293.291
293.262
293.233
293.202
293.167
293.13
293.09
293.046
292.996
292.945
292.9
292.854
292.805
292.752
292.7
292.648
292.591
292.527
292.461
292.4
292.343
292.283
292.22
292.152
292.072
291.994
291.932
291.875
291.811
291.733
291.637
291.533
291.444
291.365
291.306
291.241
291.158
291.064
290.96
290.88
290.826
290.756
290.667
290.591
290.511
290.435
290.333
290.207
290.132
290.073
289.993
289.916
289.794
289.703
289.644
289.523
289.419
289.331
289.267
289.213
289.087
288.993
288.87
288.77
288.707
288.68
288.628
288.545
288.43
288.374
288.341
288.35
288.394
288.471
288.586
288.755
288.981
289.265
289.605
290.022
290.497
291.032
291.692
292.374
293.142
293.93
294.6
295.205
295.698
296.113
296.432
296.673
296.852
296.973
297.037
297.042
297.093
297.103
297.115
297.068
297.068
297.018
297.049
296.996
297.053
297.034
296.987
296.969
297.031
297.037
297.028
296.958
296.935
296.923
296.991
296.994
297.005
297.002
296.952
296.976
296.95
297.017
297.02
296.986
297.011
296.956
296.947
296.998
296.985
296.979
297.014
296.957
296.991
297.016
296.989
296.961
296.966
296.986
296.935
296.988
296.992
296.949
296.908
296.941
296.892
296.928
296.986
297.023
297.019
297.011
297.013
297.01
296.973
296.98
296.982
296.944
296.962
296.986
297.015
297.003
296.991
297.01
297.027
297.019
297.004
297.017
297.055
297.036
296.994
297.024
297.006
296.966
297.033
297.053
297.052
297.068
297.045
297.015
296.945
296.982
296.976
296.9
296.91
296.906
296.942
297.013
297.018
296.989
296.96
297.013
296.989
296.947
296.936
296.921
296.968
296.978
296.93
296.919
296.909
296.973
296.991
297.007
296.968
296.888
296.864
296.892
296.917
296.959
296.954
296.99
297
296.968
296.974
297.003
297
296.971
296.98
296.966
296.955
296.978
297.005
296.984
296.985
296.929
296.93
296.928
296.991
297.022
296.993
296.923
296.896
296.901
296.963
296.916
296.94
296.944
296.97
296.936
296.975
297.014
296.993
297.034
297.011
296.947
296.985
296.974
296.992
297.009
297.009
296.989
296.914
296.949
296.921
296.969
296.973
296.94
296.94
296.996
297.006
297.018
296.974
297.028
297.051
297.059
297.026
297.031
297.015
296.99
296.983
297.041
297.032
296.991
297.017
296.977
297.028
297.006
296.96
296.901
296.973
297
296.998
296.947
296.994
296.973
296.973
296.919
296.928
296.976
296.94
296.975
296.934
296.928
296.91
296.981
297.004
297.008
297.008
296.973
296.938
296.964
296.996
296.972
297.019
296.994
296.979
297.008
296.973
297.016
296.98
296.986
297.029
297.011
296.98
296.945
296.982
296.932
296.942
296.959
296.966
296.931
296.971
296.947
296.984
296.987
296.941
296.923
296.908
296.893
296.918
296.921
296.981
296.943
296.936
296.966
296.995
297.018
297.025
297.012
297.013
297.016
296.964
296.99
297.014
296.966
296.966
297.021
297.012
297.011
297.009
296.985
296.995
296.935
296.912
296.98
296.994
296.966
296.991
296.941
296.945
297.008
297.021
296.957
296.931
296.936
296.952
296.995
296.986
296.98
296.923
296.963
296.952
296.969
296.943
296.989
296.984
297.022
296.986
297.014
297
296.954
296.989
296.973
296.911
296.931
296.965
296.933
296.978
296.942
296.982
296.961
296.956
296.908
296.884
296.917
296.897
296.913
297
297.038
297.05
297.052
297.038
296.994
296.992
297.018
297.032
296.978
297.002
296.931
296.972
296.974
297.022
297.018
297.04
296.998
296.986
296.933
296.986
297.018
297.025
297.001
296.941
296.988
296.951
296.911
296.917
296.967
296.976
296.968
297.013
296.967
297.013
297.001
297.001
297.019
296.968
296.947
296.968
296.917
296.954
296.922
296.954
296.912
296.929
296.96
296.954
296.989
296.986
296.953
297.014
297.055
297.041
296.983
296.945
296.959
296.956
296.897
296.891
296.97
296.95
296.915
296.999
297.022
296.995
297.04
297.021
297.034
296.991
296.992
296.992
297.025
293.046
293.049
293.054
293.06
293.069
293.081
293.094
293.109
293.127
293.146
293.168
293.19
293.214
293.24
293.265
293.29
293.316
293.342
293.368
293.393
293.42
293.446
293.467
293.485
293.503
293.519
293.531
293.541
293.55
293.556
293.559
293.558
293.556
293.553
293.544
293.532
293.518
293.501
293.482
293.46
293.434
293.404
293.371
293.336
293.303
293.269
293.232
293.189
293.143
293.095
293.045
292.992
292.942
292.893
292.838
292.778
292.72
292.663
292.605
292.541
292.472
292.402
292.335
292.271
292.206
292.137
292.062
291.977
291.894
291.828
291.764
291.686
291.582
291.476
291.396
291.324
291.238
291.127
291.046
290.972
290.881
290.763
290.675
290.595
290.511
290.431
290.344
290.241
290.106
289.993
289.919
289.841
289.713
289.607
289.527
289.431
289.34
289.234
289.126
288.987
288.853
288.798
288.647
288.546
288.478
288.362
288.303
288.217
288.147
288.027
287.942
287.88