/*--------------------------------*- C++ -*----------------------------------*\
| =========                 |                                                 |
| \\      /  F ield         | OpenFOAM: The Open Source CFD Toolbox           |
|  \\    /   O peration     | Version:  v2012                                 |
|   \\  /    A nd           | Website:  www.openfoam.com                      |
|    \\/     M anipulation  |                                                 |
\*---------------------------------------------------------------------------*/
FoamFile
{
    version     2.0;
    format      ascii;
    class       volScalarField;
    location    "400";
    object      theta;
}
// * * * * * * * * * * * * * * * * * * * * * * * * * * * * * * * * * * * * * //

dimensions      [0 0 0 1 0 0 0];


internalField   nonuniform List<scalar> 
65536
(
-7.1192
-7.11783
-7.11544
-7.11222
-7.10823
-7.10343
-7.09778
-7.09142
-7.08456
-7.07727
-7.06938
-7.06107
-7.05195
-7.04218
-7.03201
-7.02229
-7.01383
-7.00631
-6.99831
-6.9893
-6.97976
-6.97033
-6.96113
-6.95203
-6.94335
-6.93559
-6.9289
-6.92283
-6.91735
-6.91291
-6.90944
-6.90654
-6.90399
-6.90231
-6.90231
-6.90392
-6.90651
-6.90994
-6.9145
-6.92062
-6.9283
-6.93675
-6.9453
-6.95422
-6.96404
-6.97487
-6.98668
-6.99961
-7.01385
-7.02921
-7.04522
-7.06186
-7.07941
-7.09838
-7.11821
-7.13936
-7.16187
-7.18469
-7.20767
-7.23132
-7.2552
-7.27982
-7.3065
-7.33344
-7.35912
-7.38471
-7.41146
-7.43787
-7.46409
-7.49611
-7.52762
-7.5565
-7.58263
-7.61455
-7.6576
-7.69538
-7.72739
-7.75623
-7.78597
-7.82069
-7.85561
-7.8877
-7.91841
-7.95059
-7.98364
-8.01981
-8.06222
-8.10307
-8.13768
-8.16566
-8.20988
-8.26885
-8.32008
-8.36022
-8.39751
-8.45158
-8.51059
-8.56305
-8.60806
-8.65512
-8.7104
-8.76025
-8.79795
-8.82878
-8.85729
-8.89386
-8.93174
-8.96565
-8.99449
-9.01744
-9.03441
-9.04531
-9.04775
-9.04328
-9.02953
-8.99828
-8.94406
-8.86582
-8.75978
-8.61527
-8.41586
-8.14635
-7.80055
-7.37054
-6.87775
-6.32205
-5.71489
-5.07071
-4.40865
-3.7518
-3.12815
-2.56036
-2.06049
-1.63571
-1.28829
-1.01921
-0.825394
-0.698856
-0.61919
-0.566873
-0.532341
-0.51257
-0.499363
-0.491448
-0.490223
-0.49114
-0.498165
-0.50488
-0.514164
-0.522688
-0.530488
-0.538595
-0.541619
-0.545311
-0.543645
-0.539747
-0.535217
-0.530652
-0.524743
-0.519697
-0.515812
-0.511604
-0.509043
-0.509136
-0.509667
-0.512975
-0.512096
-0.512561
-0.511417
-0.5105
-0.510931
-0.511293
-0.511586
-0.511655
-0.511807
-0.510796
-0.508848
-0.506728
-0.505101
-0.503579
-0.501907
-0.50192
-0.501969
-0.499934
-0.500719
-0.500729
-0.500743
-0.500133
-0.499162
-0.496367
-0.495109
-0.492701
-0.490359
-0.48728
-0.484712
-0.483999
-0.482128
-0.480572
-0.481279
-0.482175
-0.483932
-0.487979
-0.492554
-0.499781
-0.507763
-0.514868
-0.523663
-0.529922
-0.539238
-0.540793
-0.542379
-0.540713
-0.536929
-0.533694
-0.531946
-0.529913
-0.529297
-0.529399
-0.529433
-0.532005
-0.53611
-0.540583
-0.542972
-0.547
-0.547189
-0.54694
-0.544945
-0.542787
-0.541763
-0.539075
-0.536038
-0.531271
-0.530118
-0.525818
-0.522489
-0.518663
-0.513843
-0.510412
-0.50854
-0.506587
-0.505249
-0.507354
-0.508751
-0.511971
-0.513379
-0.515427
-0.51647
-0.517444
-0.517889
-0.519121
-0.518906
-0.518479
-0.518055
-0.515915
-0.51374
-0.511775
-0.511864
-0.511009
-0.511082
-0.511056
-0.511625
-0.512291
-0.513034
-0.512875
-0.514612
-0.517399
-0.521066
-0.525542
-0.528186
-0.52772
-0.525566
-0.520035
-0.513513
-0.503695
-0.496539
-0.490334
-0.487324
-0.485051
-0.484559
-0.484873
-0.486776
-0.489873
-0.495058
-0.498605
-0.503662
-0.506905
-0.508473
-0.511144
-0.512916
-0.515928
-0.521284
-0.527727
-0.534175
-0.540928
-0.542253
-0.543056
-0.5431
-0.542964
-0.544285
-0.546425
-0.548281
-0.548372
-0.549445
-0.549818
-0.548908
-0.548394
-0.549523
-0.549657
-0.551043
-0.55188
-0.553377
-0.551658
-0.550158
-0.545793
-0.542144
-0.537688
-0.535348
-0.533059
-0.531998
-0.53277
-0.533002
-0.533608
-0.532748
-0.530391
-0.528982
-0.526289
-0.524592
-0.520155
-0.517766
-0.51379
-0.510552
-0.508818
-0.508316
-0.506999
-0.50746
-0.508816
-0.510741
-0.51376
-0.516556
-0.518198
-0.520642
-0.521886
-0.522489
-0.521796
-0.520478
-0.517366
-0.515952
-0.515832
-0.51699
-0.51645
-0.515135
-0.512951
-0.510206
-0.505961
-0.5031
-0.501129
-0.499807
-0.49882
-0.498262
-0.498278
-0.497686
-0.495365
-0.492188
-0.489447
-0.488182
-0.487683
-0.48765
-0.488724
-0.489962
-0.491465
-0.494557
-0.496188
-0.500123
-0.501151
-0.503301
-0.505328
-0.506608
-0.505003
-0.498854
-0.492804
-0.484774
-0.475735
-0.468703
-0.463504
-0.461145
-0.460347
-0.461321
-0.464778
-0.469012
-0.473143
-0.477597
-0.480353
-0.48307
-0.484964
-0.488681
-0.490612
-0.493126
-0.495731
-0.498535
-0.500254
-0.500739
-0.50116
-0.4993
-0.497775
-0.493859
-0.490748
-0.488962
-0.488354
-0.489496
-0.493182
-0.495571
-0.499846
-0.503043
-0.506431
-0.507774
-0.508471
-0.507707
-0.504563
-0.503906
-0.503014
-0.502071
-0.502687
-0.503745
-0.502364
-0.50261
-0.50036
-0.500106
-0.500052
-0.49866
-0.497561
-0.497234
-0.495973
-0.494467
-0.493772
-0.493225
-0.495988
-0.499029
-0.501633
-0.506696
-0.50809
-0.508806
-0.509169
-0.511563
-0.516525
-0.523811
-0.530397
-0.535831
-0.54183
-0.544582
-0.544843
-0.544064
-0.543337
-0.53772
-0.532579
-0.523612
-0.516322
-0.506904
-0.498445
-0.491578
-0.486825
-0.484967
-0.482771
-0.481772
-0.482976
-0.483254
-0.484334
-0.485903
-0.489727
-0.493993
-0.498919
-0.502714
-0.508064
-0.51105
-0.513071
-0.512498
-0.509242
-0.506713
-0.50292
-0.499761
-0.49634
-0.493872
-0.492456
-0.489671
-0.487888
-0.489107
-0.48839
-0.487171
-0.488707
-0.489576
-0.490619
-0.493454
-0.4949
-0.497602
-0.499801
-0.50245
-0.505711
-0.509972
-0.512605
-0.515072
-0.516332
-0.51706
-0.515112
-0.515921
-0.517858
-0.520329
-0.525122
-0.529486
-0.533904
-0.541395
-0.547455
-0.553168
-0.555932
-6.73749
-6.73718
-6.73371
-6.72944
-6.72684
-6.72178
-6.71382
-6.70703
-6.70104
-6.6936
-6.68655
-6.67783
-6.66729
-6.65568
-6.64323
-6.63145
-6.62189
-6.61394
-6.6046
-6.59332
-6.58128
-6.56981
-6.55909
-6.54846
-6.53829
-6.52929
-6.52178
-6.5147
-6.508
-6.50278
-6.49882
-6.49533
-6.49178
-6.48911
-6.48927
-6.49157
-6.49423
-6.49751
-6.50218
-6.5093
-6.51894
-6.52875
-6.53777
-6.54763
-6.55891
-6.57086
-6.58365
-6.59799
-6.61422
-6.63209
-6.65107
-6.67142
-6.69183
-6.71151
-6.73399
-6.7588
-6.78001
-6.80035
-6.82265
-6.84549
-6.87329
-6.90672
-6.93327
-6.95193
-6.97308
-6.9996
-7.02825
-7.06321
-7.10443
-7.12022
-7.12357
-7.15313
-7.21526
-7.27583
-7.28953
-7.3025
-7.33343
-7.37406
-7.4207
-7.45632
-7.47726
-7.49684
-7.52529
-7.5611
-7.60852
-7.65807
-7.68668
-7.72031
-7.75334
-7.8055
-7.86497
-7.904
-7.94316
-7.97628
-8.03259
-8.09362
-8.15779
-8.20851
-8.25792
-8.30446
-8.34892
-8.38778
-8.42669
-8.46695
-8.51376
-8.55027
-8.57822
-8.60581
-8.63964
-8.66854
-8.69136
-8.69457
-8.6964
-8.69309
-8.68041
-8.6574
-8.61132
-8.52801
-8.42061
-8.29647
-8.13383
-7.89592
-7.55392
-7.11337
-6.59872
-6.01864
-5.38026
-4.70556
-4.01495
-3.33015
-2.69227
-2.12907
-1.64408
-1.23979
-0.913231
-0.662159
-0.477962
-0.34912
-0.267598
-0.221363
-0.19272
-0.163325
-0.15018
-0.14529
-0.140185
-0.146701
-0.146689
-0.15677
-0.165232
-0.180092
-0.195151
-0.19785
-0.206481
-0.197976
-0.197331
-0.199692
-0.197046
-0.183632
-0.177443
-0.170043
-0.163911
-0.163175
-0.163072
-0.159532
-0.164134
-0.16304
-0.172926
-0.167439
-0.163715
-0.160541
-0.160692
-0.166718
-0.171056
-0.168732
-0.161119
-0.156949
-0.156016
-0.155673
-0.1543
-0.153495
-0.154321
-0.152294
-0.155006
-0.163628
-0.158005
-0.154002
-0.150771
-0.149031
-0.151275
-0.157774
-0.149692
-0.143955
-0.137247
-0.138415
-0.136429
-0.129827
-0.132071
-0.13384
-0.130699
-0.129832
-0.133914
-0.135019
-0.143857
-0.148508
-0.15446
-0.1657
-0.175764
-0.1955
-0.192003
-0.202874
-0.195655
-0.190943
-0.186914
-0.183154
-0.175275
-0.177366
-0.177376
-0.175527
-0.178623
-0.1812
-0.187135
-0.192725
-0.20521
-0.19959
-0.197937
-0.197121
-0.201241
-0.202797
-0.194022
-0.189222
-0.190422
-0.194128
-0.18173
-0.180855
-0.172082
-0.167006
-0.167464
-0.163618
-0.156748
-0.156643
-0.159669
-0.154728
-0.159813
-0.158079
-0.163581
-0.165137
-0.169796
-0.169797
-0.171668
-0.169
-0.17273
-0.173783
-0.170569
-0.167692
-0.164582
-0.16365
-0.158
-0.160371
-0.162338
-0.163475
-0.165296
-0.159954
-0.159781
-0.164163
-0.165328
-0.168844
-0.173058
-0.173691
-0.180292
-0.187261
-0.181706
-0.173589
-0.162537
-0.159161
-0.14802
-0.142748
-0.132701
-0.131144
-0.129604
-0.132002
-0.133972
-0.141437
-0.146015
-0.159027
-0.158727
-0.160262
-0.164302
-0.160722
-0.161328
-0.165081
-0.168153
-0.176943
-0.189779
-0.193234
-0.19829
-0.193217
-0.191859
-0.195197
-0.196387
-0.19635
-0.200047
-0.206528
-0.201893
-0.197336
-0.201382
-0.20507
-0.198376
-0.198771
-0.198644
-0.203185
-0.20552
-0.209696
-0.200505
-0.195863
-0.18667
-0.185638
-0.183452
-0.183232
-0.184223
-0.183272
-0.1831
-0.17842
-0.178938
-0.180469
-0.177354
-0.177227
-0.170463
-0.173449
-0.167197
-0.165289
-0.163449
-0.160533
-0.155963
-0.157442
-0.157012
-0.158285
-0.161772
-0.164576
-0.164355
-0.169327
-0.172878
-0.178597
-0.18126
-0.176975
-0.168829
-0.166451
-0.16466
-0.164704
-0.166137
-0.171824
-0.168791
-0.160894
-0.155331
-0.157442
-0.153682
-0.152072
-0.149114
-0.149798
-0.149872
-0.149501
-0.149666
-0.145415
-0.144558
-0.141149
-0.137799
-0.137864
-0.138929
-0.138572
-0.141709
-0.145159
-0.143686
-0.149298
-0.147061
-0.155973
-0.15649
-0.156279
-0.157299
-0.160672
-0.16217
-0.147974
-0.136576
-0.128649
-0.120503
-0.113897
-0.110156
-0.111806
-0.114077
-0.117001
-0.121802
-0.130892
-0.132278
-0.137491
-0.137797
-0.141078
-0.139834
-0.142725
-0.144297
-0.146615
-0.14534
-0.147652
-0.152741
-0.153974
-0.157914
-0.147954
-0.144758
-0.139472
-0.135506
-0.135912
-0.138504
-0.139689
-0.149136
-0.151835
-0.155158
-0.158486
-0.158533
-0.156864
-0.158836
-0.166717
-0.159857
-0.154967
-0.154069
-0.153028
-0.151787
-0.160426
-0.152806
-0.153834
-0.149839
-0.146072
-0.14848
-0.150468
-0.147375
-0.143961
-0.142762
-0.142217
-0.146826
-0.144097
-0.146652
-0.156711
-0.156248
-0.164057
-0.161631
-0.160567
-0.162315
-0.167155
-0.173914
-0.185216
-0.197343
-0.19465
-0.194276
-0.197472
-0.197888
-0.193905
-0.200924
-0.191716
-0.186206
-0.166653
-0.156425
-0.147636
-0.14216
-0.136907
-0.129163
-0.130187
-0.132951
-0.128959
-0.129517
-0.13241
-0.13726
-0.13879
-0.146728
-0.155033
-0.168005
-0.167956
-0.170073
-0.164206
-0.165283
-0.171322
-0.163306
-0.157285
-0.149513
-0.148784
-0.146585
-0.142795
-0.144857
-0.145043
-0.138172
-0.144114
-0.15052
-0.144622
-0.142605
-0.144965
-0.145139
-0.152257
-0.148631
-0.14821
-0.150771
-0.153777
-0.157083
-0.167157
-0.173504
-0.176579
-0.169175
-0.170544
-0.165593
-0.16481
-0.169371
-0.173728
-0.183019
-0.194574
-0.194075
-0.200515
-0.206549
-0.217049
-6.37677
-6.37595
-6.37245
-6.36769
-6.36365
-6.35746
-6.34854
-6.34007
-6.33217
-6.32299
-6.31339
-6.30164
-6.28797
-6.27323
-6.25782
-6.24284
-6.22925
-6.21649
-6.20224
-6.18586
-6.16862
-6.15233
-6.13767
-6.12394
-6.11083
-6.09855
-6.08755
-6.07752
-6.0685
-6.06113
-6.0553
-6.05033
-6.04583
-6.04271
-6.04234
-6.04427
-6.04727
-6.05178
-6.05851
-6.06775
-6.07899
-6.09094
-6.10382
-6.11822
-6.13327
-6.14863
-6.16538
-6.18424
-6.20526
-6.22884
-6.25552
-6.28451
-6.31293
-6.33867
-6.36406
-6.38923
-6.41373
-6.4404
-6.46922
-6.4995
-6.53432
-6.56978
-6.5976
-6.62134
-6.64912
-6.68139
-6.71716
-6.76049
-6.80035
-6.81198
-6.81073
-6.85775
-6.93879
-6.99957
-7.01797
-7.03511
-7.0798
-7.12983
-7.17535
-7.20654
-7.22258
-7.2522
-7.29881
-7.33238
-7.38169
-7.43688
-7.44975
-7.44673
-7.49729
-7.58267
-7.65215
-7.65146
-7.67088
-7.7481
-7.81044
-7.87886
-7.92596
-7.98299
-8.08712
-8.10872
-8.12012
-8.14397
-8.19244
-8.26059
-8.3024
-8.337
-8.3672
-8.39906
-8.4246
-8.45902
-8.47608
-8.5018
-8.5142
-8.52086
-8.51235
-8.47906
-8.42435
-8.36621
-8.28962
-8.17286
-7.99506
-7.73995
-7.39405
-6.94079
-6.43053
-5.83897
-5.18197
-4.45961
-3.74541
-2.99778
-2.32279
-1.77788
-1.30846
-0.929027
-0.62481
-0.395076
-0.229584
-0.120508
-0.0488194
0.000875212
0.0293081
0.0420899
0.0618945
0.073714
0.0714438
0.0695422
0.0543493
0.0477026
0.0363044
0.0270314
0.0156137
-0.000959752
-0.00465135
-0.00783047
-0.00228988
0.0048511
0.00415724
0.00636559
0.0264351
0.0340397
0.0361545
0.046018
0.0539204
0.0479208
0.0433888
0.0250705
0.0227061
0.032237
0.0426615
0.0429585
0.0401687
0.0375363
0.0331551
0.03807
0.0358516
0.0348844
0.0404663
0.0462297
0.0527556
0.0553814
0.0552541
0.0505806
0.0487329
0.0527287
0.0485486
0.0471042
0.0466491
0.0457641
0.0493337
0.0585627
0.0556416
0.0584554
0.0574053
0.0718413
0.0728822
0.0660201
0.0731266
0.0754019
0.0786272
0.075112
0.0787865
0.0682803
0.0629116
0.0466885
0.0375211
0.0314324
0.0170211
0.00873369
-0.0104126
0.00106905
0.00170524
0.00908852
0.0192695
0.0299249
0.0215147
0.0291029
0.0267783
0.0241029
0.029709
0.0290269
0.0252148
0.00911249
0.00244291
-0.00719301
-0.00649479
-0.000370146
0.00445884
0.00244489
0.00715819
0.010285
0.0177747
0.0185409
0.0119399
0.0209143
0.0219386
0.027959
0.036591
0.0366388
0.03908
0.0473739
0.0504734
0.0375305
0.0424737
0.03494
0.0398294
0.0394102
0.0441736
0.0408163
0.0427623
0.0353336
0.036205
0.0344811
0.0353775
0.0347312
0.0389215
0.0418761
0.0333453
0.0359408
0.0394996
0.0348169
0.0403148
0.0273486
0.0332166
0.0468848
0.048183
0.0473807
0.0404961
0.0255292
0.0179106
0.0094441
0.0155342
0.0196245
0.0316451
0.0515343
0.0598143
0.0717067
0.0657863
0.0673651
0.0644646
0.0709664
0.0695308
0.0688279
0.0534834
0.044326
0.0395148
0.0405577
0.0432197
0.0455828
0.0469921
0.0493637
0.0393756
0.0286587
0.0158193
-0.0067418
0.00756859
0.0105456
0.0152054
0.0189036
0.0146063
0.000872511
-0.0039313
-0.00909967
3.84719e-05
0.000504098
0.00487497
0.00332424
0.00231632
0.00894462
0.00742298
-0.000292676
-0.009348
-0.0219756
-0.0122951
0.00429232
0.00403172
0.0129918
0.0174096
0.0207883
0.0199566
0.014861
0.0148182
0.0052562
0.0103526
0.0177124
0.0202025
0.0257799
0.019108
0.0300511
0.0307654
0.039623
0.0466075
0.048937
0.045672
0.0474804
0.0493862
0.0498722
0.0447599
0.038653
0.0308623
0.0333111
0.0304301
0.0233133
0.0119757
0.0208058
0.0253485
0.0354569
0.0420536
0.0380411
0.0318137
0.0310305
0.0372028
0.0367843
0.0365253
0.0491954
0.0488664
0.0569792
0.0565119
0.0604725
0.0560159
0.0491267
0.0511725
0.049779
0.0637909
0.066011
0.0690228
0.0730637
0.0697594
0.0635016
0.0666076
0.0631393
0.0548493
0.0530473
0.0414
0.0509277
0.0441054
0.0360601
0.0313792
0.0346966
0.0463759
0.053112
0.0705307
0.0854241
0.093775
0.0941789
0.0985626
0.101139
0.0976576
0.0915123
0.0807271
0.0775565
0.0667849
0.0672346
0.0652841
0.0643782
0.0580242
0.0589477
0.0571351
0.0548329
0.0457355
0.0489981
0.0543154
0.0486401
0.0482706
0.0511839
0.0652235
0.0695479
0.0680388
0.0694726
0.0648579
0.0560249
0.0583971
0.0475125
0.0366183
0.0372668
0.0371621
0.0351297
0.0357292
0.0421185
0.0495068
0.055432
0.0562038
0.051755
0.0403964
0.0490383
0.0440158
0.0515094
0.0528988
0.050267
0.0552875
0.0585301
0.0549484
0.0551475
0.058787
0.0605724
0.0658856
0.0569693
0.0508554
0.0501977
0.0310778
0.0293207
0.0366475
0.0454504
0.0477018
0.0399468
0.0278909
0.0201923
0.0131007
-0.00117741
-0.00513554
0.00525841
0.00478336
-0.00598435
0.000866838
0.0108125
0.0254049
0.033735
0.0487419
0.0563782
0.0684838
0.0746738
0.0696489
0.0729199
0.0762818
0.0668488
0.0667593
0.0732253
0.0755525
0.0674347
0.0643223
0.0542056
0.0473347
0.0371702
0.037338
0.0307532
0.0325457
0.0410393
0.0421882
0.0501476
0.0501133
0.0584607
0.0581592
0.0529475
0.058748
0.0577194
0.0450252
0.0542063
0.0612352
0.0614947
0.0624878
0.0608244
0.0545626
0.0585818
0.0541528
0.0519646
0.0475919
0.0362658
0.0277687
0.0314971
0.0268963
0.0252691
0.0265664
0.0401025
0.0379538
0.0318283
0.0300942
0.0230402
0.0220082
0.0227548
0.0117988
0.00683034
-0.00433103
-0.00680887
-5.88168
-5.88033
-5.87664
-5.87125
-5.86585
-5.85852
-5.84841
-5.838
-5.82772
-5.81583
-5.80344
-5.78884
-5.77187
-5.75497
-5.73659
-5.71794
-5.7009
-5.68589
-5.66891
-5.64795
-5.62562
-5.60602
-5.58848
-5.57195
-5.55628
-5.54169
-5.52812
-5.5158
-5.50513
-5.4966
-5.4899
-5.48422
-5.47976
-5.47702
-5.47617
-5.47759
-5.48154
-5.48732
-5.49568
-5.507
-5.52024
-5.53498
-5.55071
-5.56814
-5.58693
-5.60585
-5.6247
-5.64585
-5.67099
-5.69913
-5.73051
-5.76587
-5.8011
-5.83241
-5.86014
-5.88692
-5.91672
-5.95129
-5.98821
-6.0294
-6.07109
-6.10622
-6.13855
-6.17526
-6.21525
-6.25781
-6.30577
-6.35262
-6.38582
-6.40949
-6.44631
-6.49488
-6.55858
-6.62699
-6.68929
-6.73969
-6.78665
-6.83054
-6.86857
-6.91454
-6.96724
-7.01571
-7.05799
-7.09838
-7.14406
-7.20237
-7.24071
-7.24622
-7.30271
-7.36321
-7.42673
-7.45875
-7.49733
-7.59031
-7.64388
-7.72055
-7.7947
-7.86028
-7.94224
-7.9575
-7.95246
-7.96879
-8.02719
-8.15173
-8.2113
-8.25686
-8.25409
-8.27323
-8.30213
-8.32505
-8.36879
-8.39456
-8.42126
-8.42467
-8.41538
-8.40339
-8.38004
-8.32647
-8.23232
-8.07861
-7.84699
-7.53581
-7.17142
-6.69791
-6.15068
-5.52615
-4.88323
-4.10537
-3.31484
-2.63081
-1.98054
-1.4658
-1.02447
-0.669743
-0.392909
-0.188247
-0.0415983
0.0577898
0.111195
0.128843
0.118396
0.171426
0.188266
0.19121
0.192087
0.173327
0.161522
0.158957
0.14616
0.120168
0.0798452
0.0927545
0.0610713
0.0995938
0.112192
0.0987487
0.0719498
0.119239
0.133225
0.141941
0.14342
0.151679
0.153866
0.161347
0.148789
0.130928
0.0799271
0.124599
0.146954
0.162412
0.163558
0.141082
0.102673
0.129879
0.150769
0.152493
0.160475
0.162674
0.160577
0.164632
0.164798
0.162465
0.151948
0.113648
0.139464
0.156516
0.160906
0.160952
0.15006
0.1207
0.154608
0.173452
0.184923
0.178735
0.181301
0.187834
0.183771
0.186797
0.184467
0.196168
0.190128
0.191222
0.177256
0.164192
0.13523
0.138025
0.124513
0.0618483
0.0767813
0.0585667
0.0921357
0.105244
0.128148
0.133137
0.148973
0.137503
0.130226
0.133047
0.146022
0.146625
0.129213
0.110259
0.0628794
0.0976447
0.108975
0.111059
0.100529
0.0704472
0.1162
0.13112
0.113496
0.0817595
0.115328
0.117182
0.131738
0.135622
0.13495
0.141683
0.154136
0.155621
0.150925
0.159591
0.147619
0.141724
0.141156
0.141188
0.139395
0.148725
0.146517
0.151617
0.141223
0.132964
0.141061
0.151586
0.153263
0.153979
0.158069
0.154183
0.14894
0.15255
0.141801
0.147109
0.154764
0.151704
0.153834
0.148089
0.144933
0.140053
0.116573
0.0700874
0.107811
0.129574
0.13721
0.145594
0.16665
0.171369
0.187295
0.18078
0.174884
0.179794
0.191012
0.1799
0.160011
0.110979
0.142731
0.139601
0.130686
0.149199
0.167163
0.169051
0.166483
0.146964
0.109412
0.064341
0.0980561
0.12382
0.130675
0.124033
0.115645
0.116826
0.101541
0.0553466
0.100834
0.121798
0.113889
0.0836618
0.125173
0.131983
0.125613
0.119022
0.0931676
0.0431353
0.0993436
0.116537
0.134058
0.125706
0.110762
0.126675
0.128283
0.117183
0.11785
0.12615
0.123218
0.130555
0.139037
0.134264
0.135948
0.128593
0.134452
0.144045
0.150594
0.155773
0.159214
0.160437
0.159454
0.157779
0.152244
0.139963
0.146069
0.141143
0.133895
0.115718
0.0730869
0.113498
0.131438
0.151932
0.160045
0.162391
0.14388
0.10654
0.133067
0.152889
0.159142
0.157759
0.164559
0.161973
0.168289
0.160323
0.158405
0.154617
0.130757
0.153339
0.166353
0.186449
0.187598
0.179811
0.178154
0.181813
0.168492
0.164551
0.163694
0.150597
0.148966
0.144284
0.149868
0.148103
0.132912
0.107403
0.102025
0.151261
0.173169
0.189514
0.204475
0.217597
0.210886
0.204103
0.198092
0.194887
0.1857
0.156934
0.164599
0.157453
0.160219
0.152175
0.1469
0.162061
0.167438
0.16288
0.168276
0.16848
0.162001
0.153037
0.113571
0.154503
0.163094
0.17358
0.187252
0.184406
0.178927
0.167801
0.155551
0.156951
0.143893
0.126091
0.138848
0.147934
0.142487
0.10434
0.145337
0.163096
0.165567
0.156024
0.147968
0.120641
0.14519
0.153672
0.16142
0.166348
0.162264
0.153224
0.149934
0.167591
0.176031
0.175444
0.166323
0.174069
0.168982
0.150403
0.141101
0.105465
0.14791
0.16663
0.165584
0.152938
0.132864
0.111767
0.0757882
0.100985
0.106369
0.105418
0.107512
0.105448
0.058497
0.0971285
0.0884889
0.14063
0.159696
0.175815
0.18134
0.182959
0.191205
0.186701
0.173538
0.172568
0.183433
0.181992
0.180776
0.186538
0.172173
0.144469
0.100774
0.118441
0.111947
0.139176
0.139172
0.106918
0.140796
0.155108
0.168994
0.162442
0.157066
0.158597
0.153879
0.15028
0.154815
0.143143
0.129044
0.15572
0.169788
0.172284
0.166327
0.137548
0.164373
0.176878
0.170141
0.157729
0.143496
0.129387
0.117039
0.087001
0.130106
0.139245
0.145377
0.136164
0.13328
0.125397
0.120723
0.0982347
0.119256
0.118897
0.101758
0.0509922
-5.30113
-5.29922
-5.29533
-5.28971
-5.28256
-5.27362
-5.26271
-5.25093
-5.23774
-5.22382
-5.20814
-5.19111
-5.17375
-5.15285
-5.13215
-5.11219
-5.09257
-5.0744
-5.05294
-5.02923
-5.00149
-4.97323
-4.95429
-4.93947
-4.92117
-4.89956
-4.88062
-4.86354
-4.84913
-4.83972
-4.83393
-4.82734
-4.81688
-4.80878
-4.80986
-4.81532
-4.81703
-4.82087
-4.83005
-4.8429
-4.85858
-4.87528
-4.89833
-4.92472
-4.94389
-4.95913
-4.98232
-5.00984
-5.0327
-5.0614
-5.10782
-5.1624
-5.20965
-5.24425
-5.27119
-5.2958
-5.32841
-5.37092
-5.42459
-5.48791
-5.53715
-5.56738
-5.60218
-5.65204
-5.70942
-5.76931
-5.82694
-5.87844
-5.91306
-5.94748
-5.99767
-6.05746
-6.12977
-6.21577
-6.29079
-6.34212
-6.3862
-6.43995
-6.5061
-6.57151
-6.62829
-6.66759
-6.69287
-6.73053
-6.82264
-6.91292
-6.96298
-7.01099
-7.03116
-7.09704
-7.18828
-7.26513
-7.32208
-7.34799
-7.41551
-7.52561
-7.63334
-7.68329
-7.69611
-7.73753
-7.77204
-7.81897
-7.8896
-8.03455
-8.13034
-8.19533
-8.20587
-8.19795
-8.21965
-8.27255
-8.32032
-8.39458
-8.44585
-8.45219
-8.43625
-8.418
-8.3762
-8.27931
-8.12542
-7.91865
-7.65369
-7.32433
-6.89883
-6.42876
-5.87838
-5.20289
-4.50514
-3.75225
-2.95488
-2.27559
-1.67032
-1.18533
-0.777469
-0.456042
-0.212077
-0.0302644
0.0877985
0.147559
0.174979
0.208482
0.167926
0.2232
0.251968
0.261102
0.247779
0.220313
0.166442
0.198033
0.194094
0.169877
0.107962
0.139351
0.0931684
0.131029
0.147191
0.149804
0.101159
0.13765
0.18343
0.18725
0.150304
0.194489
0.212804
0.213486
0.19793
0.139728
0.106416
0.17449
0.204037
0.210963
0.201003
0.187642
0.140802
0.185719
0.185626
0.155049
0.187124
0.191156
0.208442
0.209064
0.200066
0.209318
0.18916
0.119707
0.180837
0.1857
0.176799
0.186282
0.180113
0.123468
0.193449
0.206941
0.193776
0.223601
0.223603
0.206881
0.214879
0.199826
0.228924
0.236832
0.247925
0.231986
0.207991
0.164568
0.12124
0.176674
0.15868
0.0700881
0.0679727
0.0687017
0.13389
0.118616
0.174086
0.193811
0.167741
0.184457
0.14242
0.137877
0.193292
0.198373
0.17925
0.153033
0.0747953
0.0979143
0.120092
0.14832
0.155543
0.111913
0.171087
0.175564
0.162413
0.101231
0.144197
0.130364
0.15643
0.16333
0.174626
0.147371
0.176328
0.19256
0.193846
0.159264
0.176863
0.138667
0.176481
0.180646
0.183564
0.187356
0.195975
0.189356
0.181061
0.152208
0.180575
0.18073
0.192843
0.192433
0.153146
0.166074
0.181455
0.16386
0.167864
0.135042
0.144736
0.19433
0.211311
0.210387
0.200797
0.186548
0.167685
0.110238
0.146547
0.134365
0.152301
0.180667
0.205206
0.22522
0.214176
0.206935
0.17128
0.21852
0.225511
0.235821
0.209822
0.144222
0.180169
0.173835
0.14054
0.192157
0.212772
0.222896
0.217229
0.203417
0.177157
0.131245
0.162234
0.176095
0.178213
0.168673
0.163721
0.132198
0.146583
0.102488
0.162867
0.163883
0.176392
0.133528
0.179302
0.188301
0.175221
0.149574
0.146064
0.0922626
0.133045
0.162499
0.141262
0.157521
0.108282
0.167511
0.161949
0.111361
0.143773
0.112285
0.109968
0.150109
0.14445
0.16204
0.13094
0.155704
0.134345
0.17582
0.18511
0.198116
0.193581
0.194736
0.209737
0.212933
0.19524
0.144116
0.151748
0.178387
0.17527
0.165415
0.117607
0.156653
0.133095
0.19327
0.213994
0.211418
0.196036
0.149453
0.190214
0.189104
0.161177
0.19753
0.202633
0.207885
0.207624
0.204335
0.202987
0.177412
0.12195
0.165122
0.203681
0.214115
0.22451
0.223537
0.20803
0.198464
0.199322
0.190194
0.189623
0.187975
0.136299
0.177147
0.169032
0.172075
0.153455
0.104115
0.1074
0.190767
0.233219
0.252248
0.254245
0.24954
0.251953
0.239099
0.242368
0.242088
0.215086
0.166237
0.187744
0.170317
0.196474
0.191033
0.135552
0.187808
0.202187
0.190376
0.169473
0.200002
0.214362
0.199179
0.143014
0.197886
0.221474
0.229191
0.229282
0.233336
0.214113
0.166988
0.196539
0.186689
0.165464
0.12068
0.165048
0.166513
0.173353
0.131654
0.201926
0.223392
0.221594
0.201818
0.151776
0.118437
0.169305
0.194944
0.195482
0.176971
0.195524
0.195333
0.151305
0.190833
0.207479
0.210792
0.2117
0.201275
0.197223
0.190257
0.153475
0.148058
0.199121
0.219352
0.220579
0.199411
0.154305
0.156777
0.0935399
0.121629
0.106843
0.156875
0.162194
0.129225
0.0882083
0.149508
0.117723
0.185752
0.205478
0.192179
0.216738
0.230047
0.212498
0.221974
0.215803
0.164292
0.203947
0.22189
0.220124
0.216839
0.211606
0.191091
0.110854
0.141009
0.110135
0.167202
0.174809
0.126296
0.178905
0.204224
0.206845
0.209085
0.196811
0.158825
0.181395
0.172163
0.139162
0.16694
0.133137
0.189326
0.204584
0.189992
0.196812
0.167617
0.21502
0.211785
0.197989
0.162163
0.127332
0.159421
0.146398
0.106534
0.164844
0.190117
0.187853
0.139471
0.170599
0.129913
0.163099
0.124291
0.168757
0.172781
0.149676
0.0807691
-4.6409
-4.639
-4.63365
-4.62535
-4.61776
-4.60702
-4.59144
-4.57533
-4.56004
-4.5403
-4.52101
-4.49721
-4.46939
-4.44896
-4.42248
-4.39263
-4.3637
-4.3455
-4.32524
-4.29567
-4.25902
-4.22597
-4.20481
-4.18862
-4.16856
-4.14565
-4.12659
-4.10972
-4.09561
-4.08625
-4.08094
-4.07534
-4.0657
-4.05918
-4.06246
-4.07064
-4.07536
-4.08239
-4.09394
-4.10875
-4.12751
-4.1487
-4.17623
-4.20677
-4.22958
-4.24958
-4.27901
-4.31342
-4.34224
-4.37602
-4.426
-4.48547
-4.53942
-4.58041
-4.6154
-4.65055
-4.69098
-4.7368
-4.79375
-4.87142
-4.93755
-4.97405
-5.01601
-5.0697
-5.13211
-5.21113
-5.28822
-5.3441
-5.38713
-5.43558
-5.49381
-5.56167
-5.65775
-5.76484
-5.85322
-5.91403
-5.94076
-5.98997
-6.09181
-6.19171
-6.26334
-6.31057
-6.33822
-6.40333
-6.50651
-6.58955
-6.64345
-6.68631
-6.73914
-6.84899
-6.94778
-7.00101
-7.0376
-7.0951
-7.20444
-7.30668
-7.37011
-7.4598
-7.52367
-7.59302
-7.64024
-7.70609
-7.78567
-7.88235
-8.00459
-8.08953
-8.16942
-8.16703
-8.19663
-8.25196
-8.34631
-8.44021
-8.48302
-8.49152
-8.46688
-8.40808
-8.3085
-8.1726
-7.99491
-7.75068
-7.44556
-7.08718
-6.63606
-6.10105
-5.51319
-4.86369
-4.11663
-3.30342
-2.56825
-1.93729
-1.37595
-0.936111
-0.564604
-0.27895
-0.0629846
0.0849752
0.178231
0.225961
0.198913
0.261216
0.282777
0.27992
0.276378
0.253389
0.250805
0.18404
0.163259
0.206681
0.181555
0.165305
0.20543
0.200999
0.182775
0.143134
0.164342
0.154874
0.16488
0.139561
0.189554
0.186383
0.138467
0.181972
0.176039
0.215787
0.201846
0.144695
0.184045
0.178911
0.186562
0.218878
0.223178
0.184452
0.19847
0.173982
0.199495
0.151462
0.190235
0.157845
0.190102
0.194548
0.157629
0.200076
0.206364
0.200271
0.153959
0.169386
0.125811
0.176246
0.188457
0.1622
0.195778
0.209132
0.166211
0.205655
0.199323
0.169061
0.190289
0.143252
0.202955
0.232743
0.232384
0.236397
0.213777
0.145112
0.128358
0.190103
0.205432
0.195288
0.116202
0.173062
0.170513
0.144599
0.190952
0.171908
0.145527
0.19442
0.170452
0.160437
0.222488
0.218539
0.15466
0.174912
0.15289
0.0754201
0.0878674
0.135285
0.160893
0.200433
0.201658
0.205441
0.163829
0.193085
0.18224
0.158281
0.160568
0.131475
0.155516
0.138479
0.172302
0.168526
0.138792
0.119013
0.16518
0.126259
0.165153
0.125541
0.115643
0.155297
0.167983
0.187338
0.165743
0.191081
0.187207
0.17133
0.188577
0.184046
0.11995
0.131102
0.164273
0.132463
0.148459
0.104186
0.106576
0.186573
0.193447
0.174349
0.174996
0.172033
0.190665
0.196452
0.166583
0.100166
0.101912
0.125099
0.187752
0.178477
0.21027
0.197214
0.146815
0.187355
0.230524
0.226187
0.222228
0.226829
0.204658
0.154411
0.152486
0.194612
0.22427
0.236746
0.233188
0.203109
0.156071
0.15245
0.150559
0.182917
0.181141
0.141202
0.137708
0.125718
0.183301
0.210001
0.178803
0.163881
0.213733
0.231359
0.227953
0.21856
0.175251
0.140408
0.161895
0.190881
0.149893
0.168173
0.12104
0.163386
0.127511
0.179921
0.166287
0.0928489
0.136399
0.0881666
0.0957945
0.146908
0.114381
0.157819
0.10331
0.132099
0.112135
0.166961
0.140228
0.17815
0.152547
0.149659
0.164841
0.197158
0.197883
0.146348
0.129082
0.174455
0.149539
0.187629
0.199197
0.176415
0.132929
0.198404
0.212257
0.222039
0.202111
0.203279
0.196786
0.199624
0.144556
0.18806
0.189845
0.183771
0.196076
0.159345
0.182445
0.182266
0.133646
0.128663
0.196098
0.211866
0.22032
0.204391
0.169992
0.184736
0.166416
0.131909
0.163567
0.145186
0.101526
0.143102
0.12668
0.174747
0.144431
0.146258
0.205013
0.221813
0.233793
0.23139
0.23175
0.251978
0.239883
0.18623
0.191024
0.230124
0.231448
0.202496
0.203079
0.189407
0.194994
0.159418
0.113092
0.186219
0.203172
0.153968
0.134399
0.181797
0.191206
0.21858
0.227771
0.20155
0.181088
0.191678
0.208822
0.217325
0.205336
0.140982
0.15923
0.177361
0.142742
0.124418
0.156203
0.143537
0.2048
0.224038
0.207941
0.216378
0.211969
0.181549
0.127786
0.14287
0.149922
0.160891
0.175102
0.131626
0.182073
0.164712
0.149863
0.197479
0.202318
0.181844
0.157497
0.186589
0.177093
0.162597
0.13348
0.180665
0.227782
0.247118
0.237232
0.208133
0.169789
0.188061
0.185568
0.120974
0.0957056
0.132757
0.155114
0.139096
0.203635
0.210015
0.227535
0.21808
0.199656
0.146315
0.209484
0.216751
0.181393
0.214815
0.177513
0.14074
0.192209
0.17802
0.165198
0.213856
0.215085
0.191935
0.198701
0.140975
0.14194
0.205009
0.221992
0.214925
0.17302
0.179821
0.194301
0.169074
0.163809
0.122828
0.151915
0.115841
0.0927277
0.147083
0.160825
0.190007
0.201406
0.152577
0.225448
0.234622
0.237944
0.229799
0.185904
0.120314
0.0872703
0.121633
0.114758
0.171456
0.185604
0.153822
0.182537
0.144039
0.174734
0.143871
0.19323
0.205955
0.206438
0.209884
0.20614
0.209503
-3.92816
-3.92597
-3.92014
-3.91173
-3.90336
-3.89141
-3.87516
-3.85796
-3.84084
-3.81934
-3.79758
-3.77155
-3.74249
-3.71952
-3.69132
-3.66085
-3.63233
-3.60845
-3.58543
-3.55637
-3.52654
-3.50063
-3.47686
-3.45554
-3.43682
-3.42075
-3.40657
-3.39482
-3.38475
-3.37637
-3.37115
-3.36891
-3.36852
-3.37022
-3.37504
-3.38289
-3.39437
-3.40834
-3.42415
-3.4426
-3.4648
-3.49139
-3.52041
-3.54928
-3.5783
-3.60954
-3.64432
-3.68173
-3.72162
-3.7658
-3.81625
-3.86633
-3.91183
-3.95749
-4.00682
-4.05928
-4.11185
-4.16376
-4.22077
-4.28491
-4.35109
-4.41186
-4.46925
-4.52884
-4.59134