/*--------------------------------*- C++ -*----------------------------------*\
| =========                 |                                                 |
| \\      /  F ield         | OpenFOAM: The Open Source CFD Toolbox           |
|  \\    /   O peration     | Version:  v2012                                 |
|   \\  /    A nd           | Website:  www.openfoam.com                      |
|    \\/     M anipulation  |                                                 |
\*---------------------------------------------------------------------------*/
FoamFile
{
    version     2.0;
    format      ascii;
    class       volVectorField;
    location    "400";
    object      U;
}
// * * * * * * * * * * * * * * * * * * * * * * * * * * * * * * * * * * * * * //

dimensions      [0 1 -1 0 0 0 0];


internalField   nonuniform List<vector> 
65536
(
(0.196029 -0.183599 0)
(0.561552 -0.182101 0)
(0.924445 -0.213604 0)
(1.36208 -0.228707 0)
(1.77213 -0.198129 0)
(2.12915 -0.185089 0)
(2.52742 -0.20502 0)
(2.96959 -0.212415 0)
(3.38887 -0.207534 0)
(3.80186 -0.213272 0)
(4.23116 -0.206225 0)
(4.61005 -0.198873 0)
(5.01715 -0.199872 0)
(5.41584 -0.199087 0)
(5.85425 -0.216243 0)
(6.33118 -0.244058 0)
(6.84958 -0.253224 0)
(7.32551 -0.227463 0)
(7.74141 -0.209156 0)
(8.16998 -0.221794 0)
(8.62618 -0.233626 0)
(9.10469 -0.224419 0)
(9.55868 -0.217272 0)
(10.0326 -0.233996 0)
(10.5393 -0.262746 0)
(11.077 -0.273502 0)
(11.5973 -0.255683 0)
(12.0824 -0.25527 0)
(12.6022 -0.277857 0)
(13.1432 -0.272191 0)
(13.6538 -0.240154 0)
(14.1425 -0.216515 0)
(14.6272 -0.235884 0)
(15.1769 -0.286803 0)
(15.7668 -0.293108 0)
(16.2902 -0.257185 0)
(16.7794 -0.241569 0)
(17.2917 -0.251523 0)
(17.8235 -0.280128 0)
(18.3864 -0.291206 0)
(18.8932 -0.241662 0)
(19.307 -0.191055 0)
(19.7347 -0.202699 0)
(20.2106 -0.233946 0)
(20.6666 -0.241195 0)
(21.1082 -0.235682 0)
(21.5605 -0.23238 0)
(22.0145 -0.22865 0)
(22.4546 -0.211302 0)
(22.876 -0.178026 0)
(23.2759 -0.143973 0)
(23.6351 -0.129313 0)
(23.9401 -0.171701 0)
(24.2871 -0.233954 0)
(24.6365 -0.213802 0)
(24.8999 -0.138138 0)
(25.1667 -0.0965895 0)
(25.4695 -0.0953763 0)
(25.7509 -0.137547 0)
(26.0671 -0.190545 0)
(26.3608 -0.139852 0)
(26.4642 -0.0153756 0)
(26.5074 0.0269806 0)
(26.6649 -0.0452581 0)
(26.9335 -0.138169 0)
(27.183 -0.220876 0)
(27.4531 -0.252146 0)
(27.6768 -0.0242713 0)
(27.4433 0.345951 0)
(27.0115 0.265761 0)
(27.2755 -0.354844 0)
(28.2495 -0.691469 0)
(28.7515 -0.217797 0)
(28.2311 0.441005 0)
(27.5659 0.486866 0)
(27.5413 0.0124759 0)
(28.0296 -0.38767 0)
(28.3809 -0.369915 0)
(28.2181 -0.0146276 0)
(27.7412 0.36397 0)
(27.4055 0.453937 0)
(27.3486 0.116248 0)
(27.4988 -0.470161 0)
(27.9227 -0.670301 0)
(28.2275 0.0190707 0)
(27.5514 0.887442 0)
(26.5289 0.61894 0)
(26.7355 -0.615256 0)
(28.1199 -1.04825 0)
(28.5145 0.118118 0)
(26.9198 1.18158 0)
(25.6842 0.498758 0)
(26.5019 -0.939062 0)
(28.108 -1.11141 0)
(28.2678 0.112737 0)
(27.1581 0.857849 0)
(26.7647 0.212632 0)
(27.3439 -0.550241 0)
(27.5122 -0.203484 0)
(26.4855 0.696604 0)
(25.5009 0.781311 0)
(25.7672 -0.182653 0)
(27.0877 -1.13893 0)
(28.2719 -0.906824 0)
(28.2196 0.272661 0)
(27.3049 0.88678 0)
(26.6581 0.339134 0)
(26.7422 -0.536306 0)
(27.3465 -0.827297 0)
(27.957 -0.405213 0)
(28.1909 0.165771 0)
(28.1137 0.337319 0)
(27.8534 0.0898385 0)
(27.708 -0.23153 0)
(27.8209 -0.298877 0)
(28.0824 -0.07283 0)
(28.2317 0.178614 0)
(28.2083 0.179235 0)
(28.1007 0.00719289 0)
(27.9532 -0.0476523 0)
(27.6751 0.0541034 0)
(27.3487 0.143813 0)
(27.0411 0.197087 0)
(26.6625 0.269168 0)
(26.1116 0.313855 0)
(25.4903 0.288308 0)
(24.8886 0.316366 0)
(24.1238 0.489251 0)
(22.9994 0.710969 0)
(21.5228 0.846273 0)
(19.8818 0.856943 0)
(18.2898 0.78648 0)
(16.8437 0.713598 0)
(15.5107 0.633224 0)
(14.3713 0.53787 0)
(13.3866 0.476575 0)
(12.494 0.422689 0)
(11.72 0.359792 0)
(11.0596 0.319873 0)
(10.4418 0.299826 0)
(9.87314 0.273173 0)
(9.35931 0.245493 0)
(8.89474 0.225788 0)
(8.45735 0.213751 0)
(8.0407 0.203728 0)
(7.6502 0.188471 0)
(7.29253 0.174125 0)
(6.95526 0.16402 0)
(6.63705 0.156418 0)
(6.33977 0.142137 0)
(6.07031 0.123176 0)
(5.83702 0.115465 0)
(5.60473 0.110558 0)
(5.39611 0.101582 0)
(5.19703 0.0918372 0)
(5.02645 0.0864968 0)
(4.85164 0.072617 0)
(4.71491 0.0604159 0)
(4.57642 0.0720666 0)
(4.412 0.0861764 0)
(4.24816 0.0828536 0)
(4.09457 0.0776478 0)
(3.95152 0.0748828 0)
(3.80691 0.0586603 0)
(3.70169 0.0553573 0)
(3.58194 0.055255 0)
(3.48047 0.0456761 0)
(3.38708 0.0457762 0)
(3.28803 0.0477177 0)
(3.18889 0.0582931 0)
(3.05216 0.0746558 0)
(2.90642 0.0693049 0)
(2.78865 0.0533045 0)
(2.69438 0.0440271 0)
(2.61299 0.0431978 0)
(2.51852 0.0480979 0)
(2.42317 0.0452908 0)
(2.33263 0.0420012 0)
(2.25946 0.0431857 0)
(2.18662 0.0384106 0)
(2.11401 0.0213025 0)
(2.06602 0.0170509 0)
(2.00901 0.0294316 0)
(1.95852 0.0268179 0)
(1.922 0.0193436 0)
(1.8717 0.0222236 0)
(1.81898 0.0215878 0)
(1.77015 0.0191619 0)
(1.72581 0.0199723 0)
(1.68353 0.0248834 0)
(1.63018 0.0354539 0)
(1.57033 0.0386841 0)
(1.5063 0.0356445 0)
(1.43578 0.0298063 0)
(1.39042 0.0210814 0)
(1.33789 0.0158885 0)
(1.30351 0.01662 0)
(1.26945 0.00888281 0)
(1.25297 0.00304055 0)
(1.22674 0.0138879 0)
(1.19602 0.0300238 0)
(1.13612 0.0332878 0)
(1.08696 0.022271 0)
(1.05651 0.0173949 0)
(1.02057 0.00601126 0)
(1.00921 0.0043363 0)
(0.970864 0.0206532 0)
(0.931958 0.0341019 0)
(0.869764 0.0264092 0)
(0.84328 0.00518152 0)
(0.831742 0.0016575 0)
(0.812571 0.00468544 0)
(0.799766 0.00175307 0)
(0.80279 0.00505067 0)
(0.795524 0.0192561 0)
(0.757336 0.0188524 0)
(0.749578 0.0128862 0)
(0.721498 0.00477132 0)
(0.710874 0.00124759 0)
(0.681309 0.0207441 0)
(0.621117 0.0254703 0)
(0.591098 0.0134572 0)
(0.579406 -0.00208097 0)
(0.593395 -0.00483167 0)
(0.591595 -0.00331539 0)
(0.589833 -0.00766122 0)
(0.588482 -0.00228385 0)
(0.602824 0.00380209 0)
(0.608044 0.00557916 0)
(0.606176 0.00588328 0)
(0.575679 0.0111089 0)
(0.553304 -0.00196894 0)
(0.57322 -0.0105101 0)
(0.567088 0.0105854 0)
(0.536318 0.0275953 0)
(0.496389 0.0229585 0)
(0.464586 0.0177469 0)
(0.425858 0.00935553 0)
(0.42124 -0.00270432 0)
(0.423497 -0.00357524 0)
(0.412331 -0.0059539 0)
(0.424593 -0.0025018 0)
(0.426655 0.00458603 0)
(0.411421 0.00466674 0)
(0.393947 0.00550977 0)
(0.370494 0.0111937 0)
(0.355449 0.0166442 0)
(0.358955 0.00929833 0)
(0.351442 -0.00324487 0)
(0.357361 -0.00838219 0)
(0.349512 0.00577949 0)
(0.32838 0.0166982 0)
(0.313561 0.0141839 0)
(0.293199 0.00285798 0)
(0.280787 -0.009815 0)
(0.298967 0.000414028 0)
(0.283094 0.0178312 0)
(0.250257 0.0113979 0)
(0.248692 0.00868244 0)
(0.216883 0.00485916 0)
(0.208635 -0.00639293 0)
(0.223348 0.00557368 0)
(0.199206 0.0119544 0)
(0.187794 0.00172586 0)
(0.170987 0.00537862 0)
(0.152665 0.0131396 0)
(0.131379 0.00822258 0)
(0.117091 -0.00437106 0)
(0.127742 -0.0120676 0)
(0.165245 -0.00759365 0)
(0.18119 -0.00352252 0)
(0.190366 -0.0140053 0)
(0.205633 -0.00407807 0)
(0.191505 0.0121255 0)
(0.176411 0.0104231 0)
(0.15071 0.00900896 0)
(0.146466 0.00617031 0)
(0.136311 -0.00239372 0)
(0.139184 -0.00569092 0)
(0.13534 0.00313615 0)
(0.140181 0.00964976 0)
(0.130179 0.00961471 0)
(0.108326 0.0166608 0)
(0.0634681 0.0230296 0)
(0.0362099 0.00875979 0)
(0.032928 -0.00872937 0)
(0.0417112 -0.015151 0)
(0.0606554 -0.00257969 0)
(0.0667341 0.00768732 0)
(0.0770002 0.00357124 0)
(0.0585053 0.00559829 0)
(0.056049 0.00319339 0)
(0.0618885 -0.00843053 0)
(0.0803938 -0.0109168 0)
(0.0799625 -0.000141501 0)
(0.0876132 0.0081168 0)
(0.061534 0.00953549 0)
(0.0465297 0.00993843 0)
(0.022299 0.00527816 0)
(0.0171315 0.000434686 0)
(0.0062914 0.00674151 0)
(0.00128762 0.00455897 0)
(-0.0044009 -0.00292549 0)
(0.0077715 -0.00242608 0)
(0.0164649 -0.0150983 0)
(0.073136 -0.030112 0)
(0.111404 -0.0106881 0)
(0.102148 0.006667 0)
(0.0907566 0.00813443 0)
(0.0659144 0.0117823 0)
(0.0440388 0.00549639 0)
(0.0403302 -0.0109053 0)
(0.0725202 -0.00551264 0)
(0.0440415 0.00695631 0)
(0.050158 0.00927409 0)
(0.0307548 0.00246271 0)
(0.03192 0.00325339 0)
(-0.00178806 0.00921365 0)
(-0.00402212 0.00738933 0)
(0.00223978 0.0123777 0)
(-0.0157252 0.00838564 0)
(-0.02498 -0.000182893 0)
(-0.0353402 -0.00325009 0)
(-0.0343208 -0.00290301 0)
(-0.0111459 -0.00809361 0)
(0.00267912 -0.0106376 0)
(0.00779921 -0.0127544 0)
(0.0290331 -0.0180672 0)
(0.0562561 -0.0220646 0)
(0.104612 -0.025032 0)
(0.166483 -0.015067 0)
(0.190327 0.00584127 0)
(0.169686 0.00655164 0)
(0.163568 0.00532256 0)
(0.13051 0.0130942 0)
(0.106046 0.00985333 0)
(0.081113 0.0145013 0)
(0.0558607 0.0159698 0)
(0.0468898 0.00795264 0)
(0.0263611 0.00636577 0)
(0.0327917 0.000974912 0)
(0.0280027 -0.00882864 0)
(0.0410693 -0.0103322 0)
(0.0460054 -0.00351846 0)
(0.0515819 0.00266896 0)
(0.0673911 0.00959965 0)
(0.065628 0.00500717 0)
(0.0536375 -0.00333304 0)
(0.0513545 -0.00727819 0)
(0.0679694 -0.0135883 0)
(0.0917045 -0.0111894 0)
(0.0951697 0.000487367 0)
(0.092565 0.0106278 0)
(0.0691536 0.00570485 0)
(0.0636236 -0.00111092 0)
(0.0636744 -0.000235223 0)
(0.0515698 -0.00737476 0)
(0.066369 -0.00722272 0)
(0.0765721 0.00366322 0)
(0.0739129 0.00716012 0)
(0.0798587 0.00586079 0)
(0.0746834 0.00567674 0)
(0.0568363 0.0091924 0)
(0.042639 0.00774 0)
(0.0307378 0.00137933 0)
(0.0292673 0.00730326 0)
(0.0137487 0.00872055 0)
(0.0118026 0.00160824 0)
(0.00289116 -0.00346695 0)
(0.00387578 -0.00430919 0)
(0.00299709 1.55774e-05 0)
(0.00357869 0.00103391 0)
(0.0296796 0.0015729 0)
(0.0260848 -0.00339489 0)
(0.0405516 -0.0080168 0)
(0.0474066 -0.00812372 0)
(0.0685365 -0.00781629 0)
(0.0740605 -0.00943261 0)
(0.0913561 -0.0165277 0)
(0.122611 -0.000111325 0)
(0.090898 0.0207481 0)
(0.0626253 0.0185597 0)
(0.0478472 0.013559 0)
(0.0264 0.00875213 0)
(0.0109779 -0.00149011 0)
(0.00836801 -0.0040716 0)
(-0.00140235 0.000353275 0)
(0.00104743 0.010293 0)
(-0.0231094 0.00638263 0)
(-0.0156473 -0.00985042 0)
(-0.000707012 -0.00854422 0)
(-0.000662878 0.00350793 0)
(0.0124515 0.0100673 0)
(-0.010718 0.00756298 0)
(-0.0224456 0.00524476 0)
(-0.0332749 0.00575193 0)
(-0.0547307 0.00504613 0)
(-0.0652794 0.00687927 0)
(-0.0741851 0.00304983 0)
(-0.0650367 -0.00665536 0)
(-0.0541751 -0.00989914 0)
(-0.0446524 -0.00689079 0)
(-0.0351879 -0.0124114 0)
(0.00482344 -0.020706 0)
(0.0277675 -0.0111774 0)
(0.0223155 0.00687555 0)
(-0.00871834 0.00946026 0)
(-0.00700894 0.00194737 0)
(-0.00185868 -0.00580017 0)
(0.0373666 -0.013351 0)
(0.0738049 -0.0054806 0)
(0.0716023 -0.000991107 0)
(0.0751352 -0.0034927 0)
(0.0619712 0.000857088 0)
(0.0495337 0.0114867 0)
(0.0195412 0.0144524 0)
(0.0163799 -0.00269014 0)
(0.0376394 -0.014756 0)
(0.0554922 -0.00930805 0)
(0.0609391 0.00441354 0)
(0.0439243 0.0120426 0)
(0.0343045 0.00537718 0)
(0.0252396 -0.00194226 0)
(0.0281777 0.00469071 0)
(0.00570225 0.00876921 0)
(-0.0169655 0.0119285 0)
(-0.0455257 0.0205979 0)
(-0.0798233 0.0226395 0)
(-0.0964468 0.0108422 0)
(-0.107865 0.00274133 0)
(-0.111108 0.00452057 0)
(-0.111407 -0.000520909 0)
(-0.108901 -0.00965041 0)
(-0.0913472 -0.0035161 0)
(-0.113096 -0.0030734 0)
(-0.0838312 -0.0147905 0)
(-0.0658121 -0.010466 0)
(-0.0564234 -0.0061073 0)
(-0.0221354 -0.00725735 0)
(-0.0101948 -0.0104675 0)
(0.01623 -0.0044947 0)
(-0.00223937 -0.00609107 0)
(0.0184649 -0.0108584 0)
(0.0176678 -0.0044353 0)
(0.0272263 -0.00529756 0)
(0.0431401 -0.0110363 0)
(0.0689838 -0.01698 0)
(0.0936773 -0.0100726 0)
(0.107092 0.0018014 0)
(0.10045 -0.00037914 0)
(0.110414 -0.00675619 0)
(0.109781 -0.00834571 0)
(0.117829 -0.00523542 0)
(0.116127 0.00868184 0)
(0.0990714 0.0141272 0)
(0.0890431 0.0130533 0)
(0.0624026 0.0205424 0)
(0.0320497 0.023682 0)
(-0.00816068 0.00867339 0)
(-0.0143075 -0.00384015 0)
(-0.00899757 0.000295157 0)
(-0.0179358 0.00715467 0)
(-0.0417434 0.0148272 0)
(-0.0513371 0.00769971 0)
(-0.0516649 0.00228847 0)
(-0.069097 0.00258134 0)
(-0.056734 -0.00677064 0)
(-0.0491546 -0.0105133 0)
(-0.0349894 -0.0102307 0)
(-0.0190091 -0.0171515 0)
(0.0146876 -0.0104963 0)
(0.0305006 0.00327721 0)
(0.0198738 0.00132994 0)
(0.0175565 0.0121771 0)
(-0.0108669 0.0158619 0)
(-0.0265644 0.00841093 0)
(-0.0548047 0.00581351 0)
(-0.0633149 0.000450559 0)
(-0.081825 -0.003265 0)
(-0.0678365 -0.0106038 0)
(-0.0375997 -0.000655876 0)
(-0.0493369 0.00216418 0)
(-0.00131775 -0.0102542 0)
(0.0290921 -0.00715567 0)
(0.0268497 -0.00911817 0)
(0.0393159 -0.00588214 0)
(0.0178062 0.00359749 0)
(0.0055655 0.00339482 0)
(-0.00854332 0.00198849 0)
(-0.0198843 0.0104492 0)
(-0.0551147 -0.00075185 0)
(-0.011739 -0.0135876 0)
(0.0126219 0.00775479 0)
(-0.0158933 0.0191522 0)
(-0.0454217 0.0133819 0)
(-0.0631134 0.00442218 0)
(-0.0671813 -0.00794409 0)
(-0.0438756 -0.0192192 0)
(-0.0215919 -0.0161921 0)
(-0.0107798 -0.00915562 0)
(0.00611724 -0.00286555 0)
(0.00592266 0.0089158 0)
(0.0094368 0.0183137 0)
(-0.0186914 0.016603 0)
(-0.0374063 0.00743875 0)
(-0.0500819 0.00822651 0)
(-0.0836533 0.00351974 0)
(-0.0621048 -0.0124455 0)
(-0.0402087 -0.0113289 0)
(-0.0403265 -0.00446575 0)
(-0.0350723 -0.000465407 0)
(-0.0341955 -0.0107391 0)
(0.193778 -0.569776 0)
(0.582681 -0.539707 0)
(0.941115 -0.58001 0)
(1.31862 -0.612389 0)
(1.71051 -0.561883 0)
(2.07767 -0.56295 0)
(2.47717 -0.628507 0)
(2.90526 -0.642111 0)
(3.31328 -0.617686 0)
(3.70724 -0.622067 0)
(4.11813 -0.594935 0)
(4.49687 -0.580011 0)
(4.92293 -0.599007 0)
(5.34209 -0.63105 0)
(5.80882 -0.692519 0)
(6.28398 -0.744855 0)
(6.77038 -0.734802 0)
(7.19177 -0.657391 0)
(7.58824 -0.628227 0)
(8.02539 -0.655675 0)
(8.49154 -0.693877 0)
(9.00769 -0.700494 0)
(9.50606 -0.702818 0)
(10.0127 -0.738671 0)
(10.5101 -0.773693 0)
(11.0088 -0.776303 0)
(11.5057 -0.740945 0)
(11.9964 -0.740457 0)
(12.4922 -0.773839 0)
(12.9959 -0.769843 0)
(13.5086 -0.749091 0)
(14.0328 -0.746412 0)
(14.5605 -0.788228 0)
(15.0873 -0.842679 0)
(15.6 -0.809942 0)
(16.1047 -0.744578 0)
(16.6151 -0.749394 0)
(17.1464 -0.782119 0)
(17.6573 -0.804556 0)
(18.1375 -0.768393 0)
(18.5836 -0.668399 0)
(19.0652 -0.639526 0)
(19.5872 -0.690388 0)
(20.0639 -0.68735 0)
(20.4778 -0.64572 0)
(20.9008 -0.647418 0)
(21.3446 -0.663203 0)
(21.7708 -0.654771 0)
(22.1831 -0.639554 0)
(22.626 -0.632583 0)
(23.0846 -0.604518 0)
(23.4865 -0.524224 0)
(23.7905 -0.470125 0)
(24.0356 -0.452931 0)
(24.2622 -0.389497 0)
(24.5704 -0.382498 0)
(25.0085 -0.464045 0)
(25.4012 -0.480005 0)
(25.683 -0.45195 0)
(25.9056 -0.411706 0)
(26.0355 -0.249133 0)
(26.1633 -0.122715 0)
(26.4571 -0.219434 0)
(26.7733 -0.374063 0)
(26.9279 -0.373031 0)
(26.9778 -0.293342 0)
(27.0621 -0.235849 0)
(27.1177 0.0412013 0)
(27.1026 0.327136 0)
(27.3032 -0.0881811 0)
(27.69 -0.883867 0)
(27.7856 -0.784283 0)
(27.5291 0.241767 0)
(27.4696 0.752232 0)
(27.7977 0.210649 0)
(28.0944 -0.472762 0)
(28.0387 -0.451415 0)
(27.5541 0.185254 0)
(27.0471 0.659958 0)
(27.1651 0.454258 0)
(27.8655 -0.0561826 0)
(28.1549 -0.203549 0)
(27.5313 -0.106996 0)
(26.844 -0.0555907 0)
(26.8635 0.35448 0)
(27.249 0.815783 0)
(27.6048 0.209009 0)
(27.7457 -0.991873 0)
(27.4178 -0.733878 0)
(26.7112 1.07982 0)
(26.4782 1.6535 0)
(27.1881 -0.0748178 0)
(27.6828 -1.50451 0)
(27.0772 -0.663522 0)
(26.2594 0.838773 0)
(26.5419 0.650013 0)
(27.3994 -0.399103 0)
(27.3047 -0.198299 0)
(26.237 1.06425 0)
(25.5288 1.31929 0)
(25.9644 -0.0532778 0)
(26.8757 -1.4098 0)
(27.4229 -1.37851 0)
(27.4708 -0.227722 0)
(27.3558 0.697469 0)
(27.2246 0.678991 0)
(26.85 0.227668 0)
(26.4129 -0.153134 0)
(26.4268 -0.391855 0)
(27.0455 -0.441728 0)
(27.8288 -0.320642 0)
(28.1225 0.00290497 0)
(27.756 0.317128 0)
(27.3134 0.266171 0)
(27.2587 -0.0750056 0)
(27.5525 -0.337419 0)
(27.8208 -0.301544 0)
(27.8496 -0.0439151 0)
(27.6834 0.254157 0)
(27.4939 0.481185 0)
(27.2759 0.559833 0)
(26.9788 0.502034 0)
(26.5352 0.505532 0)
(25.9651 0.675364 0)
(25.2971 0.876707 0)
(24.6143 0.954818 0)
(23.9049 1.07004 0)
(23.037 1.41706 0)
(21.9049 1.90411 0)
(20.526 2.27957 0)
(19.0522 2.37831 0)
(17.6279 2.2505 0)
(16.3096 2.05932 0)
(15.1195 1.8318 0)
(14.0726 1.57796 0)
(13.1465 1.39377 0)
(12.3254 1.2388 0)
(11.586 1.07134 0)
(10.9383 0.956294 0)
(10.334 0.885998 0)
(9.79922 0.809013 0)
(9.29391 0.732715 0)
(8.84618 0.675998 0)
(8.40862 0.640208 0)
(8.00632 0.602855 0)
(7.62854 0.559179 0)
(7.27933 0.519487 0)
(6.94628 0.490618 0)
(6.63694 0.457614 0)
(6.35688 0.423718 0)
(6.07327 0.378378 0)
(5.83495 0.34921 0)
(5.60304 0.329128 0)
(5.40288 0.305267 0)
(5.19803 0.276788 0)
(5.03641 0.258224 0)
(4.85536 0.237483 0)
(4.69117 0.213507 0)
(4.52475 0.229555 0)
(4.36243 0.241329 0)
(4.2255 0.233594 0)
(4.07675 0.218298 0)
(3.95868 0.212262 0)
(3.80529 0.190035 0)
(3.68481 0.16884 0)
(3.57175 0.164725 0)
(3.45754 0.148035 0)
(3.35101 0.145553 0)
(3.24824 0.149818 0)
(3.14107 0.176823 0)
(3.01587 0.207004 0)
(2.89531 0.193901 0)
(2.78101 0.15739 0)
(2.68999 0.130756 0)
(2.60512 0.131049 0)
(2.51124 0.139883 0)
(2.41873 0.138684 0)
(2.32491 0.11982 0)
(2.27094 0.100923 0)
(2.22619 0.105469 0)
(2.14701 0.0976812 0)
(2.05865 0.0857524 0)
(1.98848 0.0763088 0)
(1.96082 0.0584915 0)
(1.92177 0.0659274 0)
(1.86134 0.0799261 0)
(1.80832 0.0795323 0)
(1.73562 0.0734338 0)
(1.68529 0.0667032 0)
(1.63902 0.0710662 0)
(1.60198 0.0779866 0)
(1.58377 0.0853902 0)
(1.53913 0.0991783 0)
(1.4723 0.0868166 0)
(1.42835 0.0775494 0)
(1.34989 0.0712177 0)
(1.30574 0.0521529 0)
(1.27159 0.0424181 0)
(1.22767 0.0396461 0)
(1.18708 0.0435071 0)
(1.17464 0.0609084 0)
(1.14724 0.0759304 0)
(1.10248 0.0578807 0)
(1.08282 0.0492225 0)
(1.04425 0.0411181 0)
(0.995469 0.0446635 0)
(0.945335 0.0562925 0)
(0.93028 0.0661398 0)
(0.905125 0.0611323 0)
(0.876431 0.0316328 0)
(0.840065 0.0279185 0)
(0.810665 0.0259931 0)
(0.790142 0.0071079 0)
(0.79495 -0.00217386 0)
(0.798723 0.0249053 0)
(0.777668 0.02568 0)
(0.785637 0.0216033 0)
(0.773948 0.0325776 0)
(0.730795 0.0376334 0)
(0.684326 0.0683996 0)
(0.629381 0.0645899 0)
(0.602439 0.0279893 0)
(0.594246 2.57712e-05 0)
(0.597371 -0.00669928 0)
(0.597107 0.00748699 0)
(0.565627 0.0115754 0)
(0.544061 -0.00912959 0)
(0.581397 -0.0222688 0)
(0.616207 -0.00705192 0)
(0.622713 0.0279575 0)
(0.57743 0.0440023 0)
(0.547831 0.0058679 0)
(0.548234 -0.00143821 0)
(0.523281 0.0279716 0)
(0.521693 0.0451297 0)
(0.518481 0.0496366 0)
(0.481324 0.0544128 0)
(0.441958 0.0348845 0)
(0.431297 0.00585093 0)
(0.419573 0.012955 0)
(0.380566 0.00531697 0)
(0.388453 -0.0121936 0)
(0.404726 0.00864814 0)
(0.378551 0.0279854 0)
(0.344285 0.0356064 0)
(0.304313 0.0273994 0)
(0.321884 -0.00459229 0)
(0.370904 -0.00492123 0)
(0.371869 0.00513255 0)
(0.352882 0.0104014 0)
(0.318487 0.0235495 0)
(0.318772 0.0195727 0)
(0.335711 0.0215426 0)
(0.318854 0.030098 0)
(0.281818 0.0036276 0)
(0.28361 -0.00314624 0)
(0.282349 0.0299111 0)
(0.263413 0.0221555 0)
(0.269949 0.0232625 0)
(0.237368 0.0347176 0)
(0.206408 -0.00119766 0)
(0.223513 0.00263481 0)
(0.227509 0.022417 0)
(0.212125 0.0262407 0)
(0.170306 0.0290957 0)
(0.15826 0.0261993 0)
(0.145487 0.0272874 0)
(0.111902 0.00783014 0)
(0.110943 -0.0363624 0)
(0.154159 -0.0458394 0)
(0.185321 -0.0216948 0)
(0.179795 -0.010041 0)
(0.162004 0.00283844 0)
(0.165077 0.0170812 0)
(0.165754 0.0302665 0)
(0.130765 0.0208426 0)
(0.142382 0.00783788 0)
(0.130393 0.00888897 0)
(0.110637 0.00588209 0)
(0.0999666 -0.00496276 0)
(0.127177 -0.00495405 0)
(0.136922 0.0218964 0)
(0.104922 0.0493985 0)
(0.0740506 0.0481969 0)
(0.0692082 0.0214873 0)
(0.0549076 0.00241228 0)
(0.037942 -0.012762 0)
(0.0475606 -0.0229986 0)
(0.0860005 -0.0238274 0)
(0.116917 0.00467422 0)
(0.0872707 0.0155446 0)
(0.0995701 -0.00681561 0)
(0.11612 -0.0155434 0)
(0.110681 -0.00732014 0)
(0.094522 -0.00607315 0)
(0.122757 0.0110319 0)
(0.0937596 0.0329083 0)
(0.0724851 0.0309529 0)
(0.0535797 0.0255172 0)
(0.0309842 0.016743 0)
(0.0171464 0.00994433 0)
(0.028373 0.00659996 0)
(0.0131397 -0.00317987 0)
(0.0271516 -0.0185115 0)
(0.0394804 -0.0505455 0)
(0.0841212 -0.0655869 0)
(0.105334 -0.0189987 0)
(0.0992597 0.0137836 0)
(0.0909894 0.0276175 0)
(0.0589994 0.0353369 0)
(0.0363883 0.019591 0)
(0.0225764 -0.0183363 0)
(0.0454565 0.000904906 0)
(0.00218615 0.0149417 0)
(0.0277978 0.00307721 0)
(0.0212244 0.0147228 0)
(0.00396372 0.0280939 0)
(-0.0348711 0.0258354 0)
(-0.0247171 -0.0121661 0)
(0.0192715 -0.00135432 0)
(0.020663 0.0184403 0)
(0.00995205 0.0195803 0)
(-0.023311 0.0124098 0)
(-0.0288129 -0.0213918 0)
(0.0168397 -0.0289255 0)
(0.0125839 -0.0083423 0)
(0.00296946 -0.0142348 0)
(0.00648254 -0.0306745 0)
(0.0216276 -0.0540213 0)
(0.0608475 -0.0852163 0)
(0.129502 -0.0709642 0)
(0.177424 -0.00848456 0)
(0.166977 0.0201736 0)
(0.144556 0.0341342 0)
(0.102431 0.0445092 0)
(0.0816998 0.0397354 0)
(0.0415881 0.0361324 0)
(0.0478987 0.0190048 0)
(0.0528962 0.0220003 0)
(0.029525 0.00834013 0)
(0.0587178 -0.0019542 0)
(0.0422449 0.00141875 0)
(0.0289102 -0.0075913 0)
(0.0246486 -0.00616468 0)
(0.0336429 -0.0236807 0)
(0.0808809 -0.023016 0)
(0.109436 0.00913405 0)
(0.0823286 0.0183647 0)
(0.0587582 -0.00669925 0)
(0.0690003 -0.0264536 0)
(0.0795437 -0.0154194 0)
(0.0703199 -0.00123421 0)
(0.0844992 0.0154986 0)
(0.062578 0.0237306 0)
(0.0430221 0.0064478 0)
(0.040716 0.012506 0)
(0.00303627 0.00461642 0)
(0.00367459 -0.0179459 0)
(0.0286126 -0.0118035 0)
(0.0457191 -0.0101864 0)
(0.0688222 -0.00667002 0)
(0.0741957 0.0178207 0)
(0.0506549 0.0236852 0)
(0.0478196 0.019916 0)
(0.0304129 0.013536 0)
(0.0262857 0.0111977 0)
(0.0275641 0.0103398 0)
(0.0294216 0.0112587 0)
(0.0107412 0.0126683 0)
(-0.00884206 0.00618499 0)
(-0.0170817 0.0011615 0)
(-0.00727729 -0.0273918 0)
(0.0501284 -0.0240333 0)
(0.0571036 -0.00723589 0)
(0.0599043 -0.0138005 0)
(0.0627051 -0.0209397 0)
(0.0813432 -0.0203622 0)
(0.0757352 -0.0143739 0)
(0.0776305 -0.0333622 0)
(0.105659 -0.00035354 0)
(0.0760261 0.0379331 0)
(0.0727856 0.0235563 0)
(0.0709421 0.0216931 0)
(0.0653098 0.0273028 0)
(0.0444283 0.018285 0)
(0.00902136 0.0157072 0)
(-0.0187577 0.00583661 0)
(-0.00155242 0.0101127 0)
(-0.0128012 0.00921956 0)
(-0.0116328 -0.0141084 0)
(-0.0126678 -0.00762959 0)
(-0.0106333 -0.0183134 0)
(0.0327759 -0.001737 0)
(0.0111647 0.0251518 0)
(-0.00381453 0.0153823 0)
(-0.00593743 0.0248248 0)
(-0.0409557 0.0254288 0)
(-0.0505591 0.0110889 0)
(-0.0424608 -0.00471545 0)
(-0.0194655 -0.0143594 0)
(-0.0201625 -0.0109771 0)
(-0.027033 -0.0124519 0)
(-0.0220557 -0.0369797 0)
(0.0131945 -0.0423282 0)
(0.0136259 -0.00568218 0)
(-0.0122332 0.0298769 0)
(-0.044062 0.0206529 0)
(-0.033959 -0.00897066 0)
(-0.0236107 -0.0386193 0)
(0.0260744 -0.0626533 0)
(0.0802151 -0.0288632 0)
(0.0816124 -0.000614207 0)
(0.0788775 0.0123897 0)
(0.0425356 0.0242135 0)
(0.0176665 0.0306328 0)
(0.0076753 0.0181201 0)
(0.018495 -0.0162346 0)
(0.031889 -0.0250843 0)
(0.0367561 -0.0147206 0)
(0.040704 0.0068162 0)
(0.0347089 0.0143498 0)
(0.0366184 0.0129804 0)
(0.0117075 0.00799856 0)
(0.0169059 0.0152622 0)
(-0.00867158 0.0364275 0)
(-0.041468 0.0391335 0)
(-0.0618927 0.0422753 0)
(-0.0695816 0.028009 0)
(-0.050882 0.016712 0)
(-0.0714188 0.0113726 0)
(-0.0691336 -0.00204756 0)
(-0.0601622 -0.00307922 0)
(-0.067295 -0.0119175 0)
(-0.0616588 0.00590322 0)
(-0.0979326 -0.00623217 0)
(-0.0674071 -0.0345616 0)
(-0.0631311 -0.0188285 0)
(-0.0590275 -0.0395066 0)
(0.000217654 -0.0408327 0)
(0.0153343 -0.0302628 0)
(0.0370431 -0.00520559 0)
(0.0115819 0.00211361 0)
(0.0113296 -0.0109076 0)
(0.00041567 -0.00591826 0)
(0.00813209 -0.0221656 0)
(0.0269451 -0.0323446 0)
(0.0413236 -0.0352325 0)
(0.0541436 -0.0300474 0)
(0.0791913 -0.0101087 0)
(0.0810019 -0.00440606 0)
(0.0842629 -0.0032797 0)
(0.0636677 9.44437e-05 0)
(0.0601882 -0.00120044 0)
(0.0613454 0.00994187 0)
(0.0710569 0.0132741 0)
(0.0762287 0.0236393 0)
(0.0552995 0.0363431 0)
(0.0556829 0.0469301 0)
(0.0220289 0.0375 0)
(-0.00791027 0.00426367 0)
(0.00212826 0.00240882 0)
(-0.0158499 0.0246481 0)
(-0.0429123 0.0174245 0)
(-0.0178 0.000960497 0)
(-0.0207743 0.0140924 0)
(-0.0388673 0.00161716 0)
(-0.0173547 -0.0136634 0)
(-0.0309149 -0.0110581 0)
(-0.0235067 -0.0193712 0)
(-0.0158738 -0.0317407 0)
(0.00393763 -0.0381144 0)
(0.0378403 -0.00692451 0)
(0.0222331 0.0132828 0)
(0.0111824 0.0200936 0)
(0.0129478 0.0298559 0)
(-0.00643925 0.0374013 0)
(-0.0421573 0.0325761 0)
(-0.063051 0.0274664 0)
(-0.108021 0.00876437 0)
(-0.087214 -0.0332058 0)
(-0.0563041 -0.0171902 0)
(-0.0571379 -0.0381918 0)
(0.028119 -0.0679244 0)
(0.0787878 -0.0213226 0)
(0.0656885 -0.00205679 0)
(0.0535581 0.0143732 0)
(0.0123363 0.0294988 0)
(-0.00414545 0.0223311 0)
(-0.0352029 0.0226046 0)
(-0.0579496 0.0352815 0)
(-0.0866993 -0.00829508 0)
(-0.0395655 -0.0553335 0)
(0.000243515 -0.00421531 0)
(-0.010477 0.0380664 0)
(-0.0339596 0.0336784 0)
(-0.0491697 0.0163797 0)
(-0.0531552 -0.0116815 0)
(-0.0355879 -0.0265357 0)
(-0.0419383 -0.0157039 0)
(-0.0467091 -0.0178521 0)
(-0.0266824 -0.0122076 0)
(-0.0193412 -0.0108308 0)
(0.0280662 0.00833999 0)
(0.0274219 0.0316128 0)
(0.0167871 0.0259166 0)
(-0.00672166 0.0400683 0)
(-0.0532908 0.0115711 0)
(-0.0207195 -0.0282988 0)
(-0.0173195 -0.00719242 0)
(-0.0409252 0.00272378 0)
(-0.0551357 -0.00223674 0)
(-0.0499158 -0.055002 0)
(0.188547 -0.957593 0)
(0.579894 -0.926479 0)
(0.969834 -0.94671 0)
(1.33491 -0.995582 0)
(1.73582 -0.954097 0)
(2.1124 -0.948548 0)
(2.49403 -1.03016 0)
(2.87539 -1.04606 0)
(3.25566 -1.00682 0)
(3.6445 -1.01548 0)
(4.05579 -0.99299 0)
(4.44935 -1.00069 0)
(4.89943 -1.04254 0)
(5.32024 -1.08255 0)
(5.75197 -1.15646 0)
(6.17512 -1.20433 0)
(6.60858 -1.15948 0)
(7.02484 -1.04261 0)
(7.44007 -1.03992 0)
(7.90996 -1.12249 0)
(8.398 -1.21379 0)
(8.91751 -1.23651 0)
(9.41807 -1.2197 0)
(9.91089 -1.23531 0)
(10.3736 -1.25623 0)
(10.8428 -1.26623 0)
(11.3358 -1.23968 0)
(11.8533 -1.2379 0)
(12.3862 -1.27352 0)
(12.919 -1.28437 0)
(13.441 -1.27255 0)
(13.9435 -1.26348 0)
(14.4431 -1.28595 0)
(14.9309 -1.32208 0)
(15.4105 -1.3059 0)
(15.9131 -1.26696 0)
(16.4289 -1.27834 0)
(16.9729 -1.28897 0)
(17.4885 -1.26665 0)
(17.964 -1.21236 0)
(18.435 -1.16367 0)
(18.9629 -1.18903 0)
(19.475 -1.19618 0)
(19.9093 -1.11878 0)
(20.3161 -1.07214 0)
(20.7404 -1.09655 0)
(21.1648 -1.09654 0)
(21.5747 -1.0611 0)
(21.9908 -1.06045 0)
(22.4389 -1.0736 0)
(22.861 -0.998322 0)
(23.2079 -0.828238 0)
(23.52 -0.713721 0)
(23.8126 -0.698832 0)
(24.1182 -0.741639 0)
(24.4985 -0.878304 0)
(24.8848 -0.92212 0)
(25.1709 -0.764416 0)
(25.4495 -0.636584 0)
(25.6533 -0.537388 0)
(25.7532 -0.390361 0)
(25.9916 -0.429321 0)
(26.3652 -0.576847 0)
(26.5994 -0.511035 0)
(26.6691 -0.336712 0)
(26.7863 -0.350208 0)
(26.894 -0.386068 0)
(26.8461 -0.0548913 0)
(26.9575 0.171457 0)
(27.3351 -0.313737 0)
(27.3673 -0.836041 0)
(26.9976 -0.527761 0)
(27.0339 0.113966 0)
(27.5492 0.184087 0)
(27.759 -0.130913 0)
(27.4946 -0.223138 0)
(27.1181 0.15649 0)
(26.8232 0.628154 0)
(26.9525 0.386672 0)
(27.5434 -0.450644 0)
(27.8086 -0.53434 0)
(27.2412 0.458831 0)
(26.625 0.841897 0)
(26.6343 0.00293094 0)
(26.9397 -0.372204 0)
(27.2672 0.153629 0)
(27.4536 0.141434 0)
(26.9719 -0.429545 0)
(25.9964 -0.00053454 0)
(25.7838 1.08821 0)
(26.829 0.721278 0)
(27.5244 -0.689069 0)
(26.5832 -0.827071 0)
(25.2255 0.327846 0)
(25.3125 0.669641 0)
(26.4652 -0.279384 0)
(26.8695 -0.543531 0)
(26.0989 0.615746 0)
(25.3641 1.58906 0)
(25.5521 0.984554 0)
(26.1945 -0.560975 0)
(26.5717 -1.64524 0)
(26.6191 -1.74691 0)
(26.5262 -0.835368 0)
(26.3729 0.533997 0)
(26.0938 1.40087 0)
(25.7931 1.15725 0)
(25.8854 -0.111744 0)
(26.4246 -1.46604 0)
(27.0127 -1.81275 0)
(27.1755 -0.914498 0)
(26.8509 0.413486 0)
(26.5198 0.902458 0)
(26.5818 0.267905 0)
(26.8516 -0.537978 0)
(27.0673 -0.634272 0)
(27.155 -0.115795 0)
(27.2028 0.319803 0)
(27.2377 0.367731 0)
(27.1788 0.368367 0)
(26.9173 0.579216 0)
(26.4761 0.896212 0)
(25.8325 1.23016 0)
(25.0682 1.52944 0)
(24.2972 1.67923 0)
(23.6068 1.70071 0)
(22.842 1.91896 0)
(21.8333 2.51491 0)
(20.5747 3.24094 0)
(19.2127 3.71648 0)
(17.9069 3.76962 0)
(16.6923 3.54156 0)
(15.5637 3.22777 0)
(14.5566 2.87464 0)
(13.6327 2.51317 0)
(12.7932 2.22609 0)
(12.0572 1.98653 0)
(11.3659 1.75062 0)
(10.7429 1.5754 0)
(10.1686 1.44279 0)
(9.66968 1.31788 0)
(9.18459 1.20379 0)
(8.75206 1.11592 0)
(8.3237 1.05748 0)
(7.93866 0.987228 0)
(7.574 0.917658 0)
(7.23597 0.857777 0)
(6.91288 0.807751 0)
(6.61705 0.747136 0)
(6.35274 0.706395 0)
(6.05637 0.645425 0)
(5.81416 0.587052 0)
(5.58304 0.543829 0)
(5.38661 0.507581 0)
(5.18989 0.459233 0)
(5.02305 0.429603 0)
(4.83743 0.41857 0)
(4.66554 0.392593 0)
(4.48828 0.400862 0)
(4.31984 0.385399 0)
(4.19581 0.368306 0)
(4.0563 0.344426 0)
(3.94038 0.345741 0)
(3.78307 0.332497 0)
(3.66101 0.288346 0)
(3.54357 0.281601 0)
(3.42352 0.266262 0)
(3.30884 0.2547 0)
(3.20623 0.257063 0)
(3.10825 0.2912 0)
(2.98449 0.321608 0)
(2.87847 0.304174 0)
(2.7689 0.259065 0)
(2.68012 0.219487 0)
(2.60461 0.221587 0)
(2.50045 0.23488 0)
(2.40512 0.231564 0)
(2.32507 0.189363 0)
(2.27923 0.140771 0)
(2.23955 0.160056 0)
(2.16406 0.187293 0)
(2.07257 0.175394 0)
(1.99404 0.125565 0)
(1.9505 0.0918238 0)
(1.89866 0.118853 0)
(1.84182 0.135686 0)
(1.79366 0.147422 0)
(1.70827 0.143206 0)
(1.64919 0.116116 0)
(1.60941 0.107101 0)
(1.58144 0.0913474 0)
(1.58439 0.103324 0)
(1.54562 0.149218 0)
(1.48139 0.141317 0)
(1.43849 0.144393 0)
(1.3555 0.140558 0)
(1.30883 0.096029 0)
(1.26102 0.0871312 0)
(1.22156 0.0888823 0)
(1.18013 0.0677894 0)
(1.17516 0.0709303 0)
(1.154 0.106552 0)
(1.09645 0.0878799 0)
(1.08845 0.0751351 0)
(1.05765 0.0935927 0)
(1.00341 0.10279 0)
(0.949305 0.0862284 0)
(0.93432 0.0733711 0)
(0.919351 0.0805193 0)
(0.892566 0.0688864 0)
(0.858193 0.0663897 0)
(0.836336 0.0528469 0)
(0.810089 0.0161051 0)
(0.816436 -0.00554578 0)
(0.808819 0.0352798 0)
(0.764152 0.0307651 0)
(0.774587 0.0136711 0)
(0.779441 0.0585498 0)
(0.747621 0.0900126 0)
(0.69892 0.120879 0)
(0.644373 0.105491 0)
(0.603678 0.0481303 0)
(0.584045 0.00269789 0)
(0.601766 -0.00775775 0)
(0.586478 0.030591 0)
(0.551307 0.0468116 0)
(0.526275 -0.017088 0)
(0.56296 -0.0672237 0)
(0.602823 -0.033747 0)
(0.614144 0.0468246 0)
(0.575666 0.0875455 0)
(0.526099 0.0279867 0)
(0.537783 0.0168408 0)
(0.516963 0.0379696 0)
(0.516943 0.034991 0)
(0.524028 0.0647596 0)
(0.484563 0.0965001 0)
(0.439144 0.0614285 0)
(0.436551 0.0216941 0)
(0.418892 0.0477348 0)
(0.372032 0.0268506 0)