/*--------------------------------*- C++ -*----------------------------------*\
| =========                 |                                                 |
| \\      /  F ield         | OpenFOAM: The Open Source CFD Toolbox           |
|  \\    /   O peration     | Version:  v2012                                 |
|   \\  /    A nd           | Website:  www.openfoam.com                      |
|    \\/     M anipulation  |                                                 |
\*---------------------------------------------------------------------------*/
FoamFile
{
    version     2.0;
    format      ascii;
    class       volScalarField;
    location    "50";
    object      aE;
}
// * * * * * * * * * * * * * * * * * * * * * * * * * * * * * * * * * * * * * //

dimensions      [0 0 0 0 0 0 0];


internalField   nonuniform List<scalar> 
65536
(
1.90244
5.04303
4.50253
4.69861
4.63617
5.47694
0.607776
3.22671
4.67137
4.56423
4.4977
0.476569
0.260113
5.91394
0.559878
0.0954776
5.37518
4.46051
4.46145
5.46274
0.0772928
5.19954
0.66111
0.319194
5.16539
4.77958
0.0604465
4.90311
4.57474
4.46975
4.53304
4.4678
5.07302
0.160335
5.00146
4.24606
4.4461
4.4358
3.62311
4.53231
4.52965
4.65901
4.62422
4.65147
4.63591
4.42438
4.46795
4.63724
4.22434
4.52944
4.50999
4.64886
4.52011
4.7217
4.71978
4.72888
4.53873
5.12237
0.0837128
4.79085
4.60113
4.69879
4.70607
4.88497
4.77144
4.58884
4.61966
5.03946
0.805069
4.77304
5.65264
0.143654
0.140215
5.6424
4.54605
4.68575
4.60733
4.87748
4.49173
5.5327
0.383945
0.0993391
5.50712
4.5287
4.5886
4.39655
4.6653
4.60299
4.60372
4.46548
4.4047
5.85083
0.191988
0.24884
5.61074
0.15623
5.45171
4.64234
4.71491
4.7839
4.92572
2.70509
4.48833
4.84422
2.9248
0.624256
5.46268
4.67911
4.68851
4.85653
3.27953
0.540278
5.31205
4.70263
3.74059
1.24419
0.247219
5.59422
4.63992
4.55453
4.9504
2.80745
1.33477
0.232186
5.70126
4.58622
4.5417
5.70537
0.265986
0.00580137
5.78126
4.71882
4.58783
4.44752
4.62807
4.41972
4.68785
5.00672
0.673285
4.92954
4.53859
4.6102
4.66947
4.64604
4.79544
4.72445
4.56173
5.39342
0.382939
0.504486
5.6247
4.45286
4.34113
4.56903
4.69313
4.6471
5.15181
1.45637
4.92658
4.63843
5.71766
0.243208
0.175521
5.496
3.89164
5.16358
0.0590212
5.37732
1.94182
0.403479
5.4585
0.714759
3.72638
4.51576
4.53254
4.60972
5.23603
1.04185
0.738164
5.28651
4.43285
4.23697
4.91735
0.245439
5.3962
0.374278
0.412665
5.46391
4.33202
4.61618
4.67805
4.35194
4.66829
4.6847
4.69163
4.56888
5.71847
0.160783
0.209151
5.60736
4.63707
4.2584
4.44147
5.62358
0.429458
0.159061
5.56789
4.65448
4.54845
5.55268
0.751701
1.10872
0.460905
0.13409
5.71556
4.54353
4.55907
5.12178
0.0790226
5.08587
4.45172
4.61488
4.70767
4.52746
5.4084
0.645097
0.257482
5.7114
4.59408
4.74969
3.78084
5.46679
0.181731
0.290988
5.60608
4.63397
4.74368
4.77522
4.42173
4.77887
5.16932
1.18235
4.58046
5.79911
0.212717
1.15686
0.253809
5.7314
4.41571
5.69094
0.295174
0.16398
5.60458
4.73534
2.54888
0.66745
2.93248
4.88741
4.71355
4.49231
4.69236
0.184355
5.56756
4.61161
4.93
1.60278
4.79085
5.49487
0.0135253
0.106601
5.58816
4.9094
2.48173
0.23111
5.54565
0.00530428
5.49656
4.63157
5.78146
0.260153
0.67185
5.70963
0.900713
0.29211
5.45963
4.56479
5.6625
0.308182
0.10316
5.68887
0.23589
5.43657
4.51834
4.68691
4.80054
4.6172
4.78193
4.64353
4.77962
4.4912
4.68675
4.74751
5.25581
0.353948
5.35044
4.57579
4.65656
4.58063
4.6069
4.38422
4.66153
4.30835
4.48615
5.26658
0.149618
5.14558
4.49947
5.35617
0.399009
0.0757416
5.60142
4.4731
5.19122
0.232827
4.16402
4.4255
4.67722
4.68415
3.68692
0.373316
0.76963
4.24956
4.56094
4.1452
3.76198
4.28992
3.77312
0.442869
5.16232
4.45457
4.58705
4.67287
4.61066
5.47742
0.45891
0.296551
5.6698
4.62655
4.70544
4.4927
4.70636
5.29902
0.0719766
5.35515
4.32312
4.58694
4.55998
5.46646
0.579639
1.06377
0.0884545
5.48901
4.39153
4.26061
4.50877
3.80049
4.58218
4.77375
4.68004
4.61866
5.26633
1.45867
0.317104
5.61861
4.65854
4.72712
4.56984
4.64259
4.58309
5.59645
0.441581
0.389064
5.51869
4.55071
4.63034
4.62998
4.83036
2.19642
4.80993
4.64437
5.40062
0.825527
0.504179
5.40786
4.64209
4.60926
4.69678
4.72535
4.64291
4.66499
4.61987
4.79495
4.66323
4.74749
4.67962
4.65861
5.09849
2.0205
0.704713
0.145694
5.73166
4.59272
4.63672
4.62024
4.7422
2.46192
4.6547
4.49254
4.36481
4.69914
2.31217
4.78759
4.71625
4.6866
4.73398
4.62414
5.68831
0.213376
0.599528
5.62157
0.204503
5.28057
4.40283
4.55697
4.61483
4.17608
5.12779
0.0439043
5.16554
4.48203
4.51322
4.5992
4.77144
4.85691
4.71688
4.70423
4.63988
4.42065
4.42397
4.53971
4.54096
4.6464
4.70668
3.8935
0.703496
5.35945
0.610374
2.67903
4.74074
5.00475
1.10935
5.57921
0.107072
0.0897509
5.73872
4.69927
4.76236
4.66327
4.66366
4.49578
5.16698
0.154711
5.31024
0.435842
4.7304
4.50943
4.75096
4.70769
4.69082
4.62941
4.36912
0.958148
0.390831
5.67797
4.15291
4.72835
4.82927
4.80633
4.36901
5.07517
2.37828
0.823921
1.18842
0.650378
4.407
4.62683
4.5668
4.59676
5.15536
0.966505
5.73614
0.356684
0.329291
5.44681
4.50982
4.54762
4.76278
4.74594
4.75253
4.60204
4.50844
4.1745
1.07742
2.2629
1.68096
2.24193
2.20385
2.51867
0.0806102
2.02941
2.66334
2.29641
2.48301
0.931674
0.826554
3.04127
0.554831
1.1595
2.5226
2.22283
2.21893
2.77001
0.48552
2.48972
0.511744
1.30323
3.07074
2.58002
0.913393
2.07037
2.60134
1.89552
2.21058
2.38378
2.4437
0.666718
2.51908
1.83281
2.16435
2.32524
1.51023
2.59071
2.13081
2.24713
2.01852
2.15933
2.31224
2.04022
2.1888
2.58344
1.56158
2.14781
2.06195
2.19177
1.96104
2.13104
2.16417
2.31084
2.30066
2.24565
0.603083
1.69956
2.28413
2.05376
2.01277
2.54348
2.19398
1.9229
2.27617
2.03518
1.4023
2.4037
2.59318
0.597973
0.634882
2.5685
1.95102
2.19486
2.13699
3.04254
2.30448
2.7154
0.632753
1.00903
2.64435
2.17366
2.16143
1.81668
2.29153
2.04958
2.02278
1.69642
1.92414
2.81905
0.132035
0.738436
2.74161
0.236192
2.20101
2.12174
2.11664
2.21678
2.15291
1.68359
1.93577
2.20336
2.44489
0.148764
2.49177
2.18256
2.02578
2.29318
1.80752
0.260178
2.39602
2.60738
2.02503
0.521896
0.785778
2.73117
2.4131
2.05571
2.13053
2.11474
0.500021
0.887183
2.77226
2.16872
1.88255
2.50188
0.267519
0.42552
2.56961
2.44275
1.97982
1.60882
2.23502
1.70041
2.41364
2.20812
0.991199
2.14738
2.19188
2.02832
2.0083
1.87002
2.23193
2.27962
2.18976
2.41301
1.4238
0.201497
2.95775
2.16924
1.7602
2.09107
2.20606
2.12088
2.41735
0.90274
2.35038
2.27519
2.45182
0.259833
0.759075
3.14862
2.32046
2.62049
0.785804
2.80407
0.684943
0.833178
2.81599
0.304976
2.22467
2.09267
2.15389
2.24237
2.68043
0.976918
0.190692
2.54022
2.18412
2.02983
2.6116
0.946248
2.87565
0.8872
0.259394
2.49514
2.14946
2.18041
2.475
1.60881
2.18836
2.15074
2.18625
2.123
2.51007
0.385011
0.284279
2.5477
2.40671
1.55742
2.04743
2.86592
0.253854
0.607287
2.25774
2.24078
2.00152
2.60433
0.00807179
1.03818
2.09323
0.46938
2.55612
2.25496
2.19302
2.63835
0.895452
2.61314
2.2097
2.14724
2.53425
1.91512
2.69041
0.977449
0.330288
2.69053
1.96139
2.20668
2.06617
2.77186
1.06536
0.54093
2.63665
2.14445
2.22475
2.30959
1.47595
2.62184
2.11618
1.20073
2.19445
2.73059
0.0914433
1.07715
0.406872
2.86223
2.39239
3.03259
0.122654
0.627849
2.94159
2.66682
0.606285
1.48395
2.04578
2.13235
2.36536
2.14524
2.20445
0.259498
2.96954
2.17208
2.46407
0.0437534
2.57447
2.69758
1.29746
0.532147
2.81943
2.45794
1.14204
1.11993
2.78214
0.691331
2.67474
2.29234
2.75095
0.161926
0.348739
3.29247
1.45255
0.839767
2.58161
2.13371
2.46485
0.00855645
0.773336
2.79675
0.0834728
2.49168
2.20642
2.23732
2.52124
1.80223
2.28995
1.79715
2.32608
1.66129
2.10983
2.33527
2.29486
0.1901
2.48778
1.92506
2.15863
1.98042
2.13087
1.63014
2.24701
1.65564
2.32866
2.78386
0.248728
2.51433
2.26592
2.19783
0.424533
0.950253
2.73668
2.15332
2.50762
0.477018
1.95688
1.82959
2.47952
2.4258
2.47943
1.85403
0.922137
1.82586
2.6882
1.75683
1.95559
2.42287
2.57703
0.890687
2.73414
2.25374
2.15192
2.16276
2.0345
2.29051
0.153322
0.00735333
2.66265
2.2973
2.20467
1.8233
2.41861
2.23263
0.0713587
2.53732
1.67744
2.18929
2.52783
2.59291
0.733715
1.39255
1.33101
2.65805
2.35436
1.64818
2.38736
1.81222
2.22787
2.39436
1.96452
1.91249
2.18258
1.24893
0.489823
2.53809
2.26736
2.14356
1.98667
2.1897
2.16794
2.53019
0.0590285
0.0131578
2.27005
2.36729
2.03117
2.06019
2.23132
1.7069
2.11497
2.24173
2.79918
0.18005
0.126894
2.70361
2.50737
2.16154
2.14354
2.25956
2.21148
2.0554
1.87043
2.44795
2.22533
2.16875
2.19171
2.31944
2.45521
0.144307
1.74898
1.11109
2.62594
2.12821
2.09862
2.19408
2.51882
1.43324
2.10619
2.18396
1.63168
2.23149
0.355292
2.38653
2.16158
2.04659
2.12887
2.24733
2.32578
0.170106
0.0294933
2.84276
0.777065
2.6503
2.13915
2.2314
2.46027
1.76395
2.55546
0.493211
2.23968
2.26499
1.77076
1.83988
2.10781
2.5055
2.01624
2.14381
2.10314
1.73618
2.14175
2.10382
1.86064
2.16677
2.5972
2.59103
0.504977
2.96829
0.82541
2.17658
2.16304
2.35519
0.110959
2.66928
1.01834
0.477339
2.48136
2.31577
2.21228
1.946
2.11128
2.05468
1.96988
0.336601
2.71003
0.242662
2.37584
2.16593
2.23833
2.01492
2.1888
2.39691
2.53116
0.74448
0.13283
2.69704
1.62359
2.42288
2.67228
2.71136
2.02889
2.32764
0.540192
1.27221
0.872927
1.11912
3.03537
2.31432
2.10461
1.96458
2.32851
0.0613714
2.99026
0.314517
0.461138
2.39788
2.25742
2.10278
2.36024
2.42765
2.40943
2.11349
2.10861
1.64589
0.78116
1.57891
2.29143
1.57701
1.88407
2.0679
1.37366
1.62225
1.31638
1.26135
0.177501
0.227035
0.509813
2.05546
0.698173
0.998033
2.16949
1.64795
1.56219
1.33558
0.0737469
2.4635
1.05459
1.30172
1.45204
2.20627
1.3306
2.41102
1.23898
2.11615
1.64914
1.65834
2.31476
0.63988
1.89739
2.15414
1.71216
1.42818
2.37614
1.02578
1.61844
1.31587
1.70423
1.60704
1.4392
1.8559
1.60103
1.16161
2.45041
1.56135
1.35646
1.51091
1.53348
1.62415
1.43353
1.31037
1.41668
2.29142
0.476232
2.49886
1.35114
1.97123
1.68481
0.884886
1.53501
1.94713
1.83909
2.19464
0.22578
1.6955
1.92066
0.138264
0.300205
1.88761
1.82971
1.55586
1.57097
0.39561
1.52692
1.85309
1.58135
0.973737
1.68206
1.69629
1.64593
1.81073
1.26383
1.58884
1.68965
2.16751
1.98975
1.5694
0.198797
0.457449
2.28569
0.721027
2.20477
1.55857
1.46051
1.42354
1.42269
0.20363
1.95803
1.90962
0.603308
0.755362
1.89354
1.44408
1.73314
1.26574
1.26582
0.761592
2.21706
1.20423
1.88496
1.8616
0.995235
1.87257
1.40236
1.97918
1.84486
0.322314
1.30718
0.888332
1.50115
1.63567
1.90298
2.04406
0.231528
0.0732046
1.76787
1.18758
1.83674
2.58818
1.47804
2.27622
1.25825
2.11119
1.28248
2.03513
1.52065
1.65595
1.65107
1.88303
1.65138
1.3926
1.57265
2.26211
1.44853
1.08253
1.71872
1.89553
2.20288
1.69859
1.66616
1.60044
1.2765
0.263187
1.51394
1.43562
1.89548
0.769251
0.501191
0.923606
1.70295
1.89736
1.07492
1.84532
1.52297
0.476068
2.02671
0.991927
1.75596
1.86565
1.62504
1.58664
1.6676
1.77848
1.15259
2.1721
1.67581
1.80415
1.57756
1.18655
2.02399
0.473433
0.649266
2.26804
1.78135
1.94977
1.25528
2.18507
1.50808
1.53246
1.50227
1.5371
1.8991
0.145781
0.153979
1.8694
1.31472
2.32467
1.81416
1.36754
1.21774
0.423892
2.35007
1.51404
1.63913
1.85794
0.912478
1.29146
2.02848
0.246065
2.09404
1.34315
1.63522
1.66657
1.35209
1.77874
1.55884
1.67884
0.876479
2.01698
1.78038
1.09332
0.588395
1.59101
1.73991
1.26951
0.00198592
1.47846
1.08332
0.887184
1.83367
1.58194
1.41701
1.34912
2.36844
0.98263
2.10392
0.146783
1.82136
1.9173
0.330816
0.835371
0.588589
1.81841
1.51848
1.66155
1.08448
0.813514
1.51303
1.65013
2.90382
0.125013
0.617762
1.66427
1.28883
1.55654
1.96007
0.490152
1.16483
1.66455
1.5715
1.81646
1.33973
1.77442
1.12171
0.531893
1.48667
1.46806
1.90836
0.15441
2.07137
0.978211
1.82647
1.84216
1.67139
0.35203
1.17369
1.72309
1.74772
0.405879
1.71114
1.77118
2.00248
0.734134
0.206522
2.18218
0.880662
2.17973
1.52723
1.40725
0.905459
1.99371
1.22785
2.02516
1.20964
2.05311
1.65992
1.34534
1.8928
0.455998
1.47324
1.7678
1.50492
1.74179
1.48342
2.12788
1.51452
2.14861
1.42925
1.24348
0.75419
1.83573
1.56972
2.30423
0.518912
0.703947
2.0211
1.9053
1.94239
0.928215
0.757024
1.98692
1.12828
1.2503
0.753741
1.42282
0.836655
2.69598
1.29378
2.22087
1.46215
1.3297
1.07414
1.58105
1.47587
1.74839
1.71918
1.78132
1.70178
2.2032
0.394891
0.849308
1.6967
1.32152
1.73256
2.05177
1.36751
2.17641
0.992695
2.09837
2.2582
1.81521
1.06067
1.85869
1.11691
0.0249325
0.937682
1.92252
1.57411
2.26195
1.33489
1.69976
1.5124
1.10155
1.78141
1.89483
2.10553
0.490806
0.219965
1.76746
1.21675
1.84055
1.44245
1.52259
1.77827
2.0403
0.498041
0.323028
2.19689
1.0616
1.73798
1.66619
1.68797
0.161825
1.66917
1.53113
1.4975
1.39941
1.66331
1.90393
1.33177
1.68594
1.82336
1.53062
1.06037
1.64569
1.91502
1.08234
0.967723
1.65401
1.46173
1.41646
1.76909
1.59
0.425018
1.33344
1.59804
1.70363
1.73693
1.50997
1.19193
1.6849
2.19707
1.60094
2.39673
1.73839
1.70083
1.52515
1.51679
1.60948
1.76378
1.37597
2.20752
0.316322
1.03572
1.89591
0.0128559
1.54672
1.6646
1.59768
1.19081
2.10021
1.71408
0.552506
2.20065
1.33738
2.13397
1.9688
1.78192
0.954064
1.66053
1.43449
1.58944
2.14795
1.59421
1.6072
1.945
1.72589
1.09601
1.13605
1.34923
1.86124
1.1465
1.0734
1.98213
1.88532
0.89075
2.04457
0.251383
0.495474
1.8416
1.27616
1.33308
1.59937
1.46703
1.86823
2.47875
0.385214
1.98891
0.75862
1.93323
1.70567
1.53466
1.71919
1.50227
1.5019
1.83241
1.32067
1.03935
2.08775
2.4462
1.37156
0.948887
0.95056
1.82908
2.1217
0.0988799
0.101624
0.835306
0.245668
0.512196
1.64559
1.69901
1.97764
1.78202
0.918137
1.64627
0.783286
0.902806
2.31179
1.55601
1.53683
1.48553
1.17567
1.36566
1.73515
1.70289
2.26531
0.0908648
1.48218
0.275194
1.36372
1.02609
1.38922
0.956906
1.25195
1.61191
1.44448
0.314123
0.457548
1.3539
2.10896
0.653557
1.6071
1.05449
1.29724
1.43745
1.73328
0.177273
0.952328
0.452054
1.4028
2.43084
1.74824
2.77983
0.952387
2.04141
0.821806
1.30548
1.14925
0.280739
1.19676
1.11126
0.484443
1.16041
1.60935
0.192196
2.09411
1.14119
1.59141
1.12529
1.07385
1.31809
0.777175
1.37885
2.16947
0.748844
1.49312
1.61224
1.32871
1.2773
1.20481
1.50403
1.74289
1.47539
0.335514
0.23329
0.250377
1.62255
0.591699
1.07281
2.06042
1.21456
0.722972
1.06543
1.16841
1.40079
1.49858
1.42436
0.771013
0.230001
1.24256
0.966016
1.31311
1.45364
2.87464
1.46892
1.56298
0.170272
1.8096
1.77232
1.09422
1.25426
0.945805
1.60777
1.13328
1.054
0.520714
0.749951
2.20033
0.773267
0.969697
1.45096
0.328472
0.78384
1.3617
1.3276
1.21666
1.53453
0.949473
0.890306
1.00705
1.42274
0.504765
1.37024
1.56396
1.07241
1.36607
0.279321
0.994785
0.923956
1.9855
0.782554
1.39329
1.36779
1.64875
1.63278
0.994629
1.28796
1.41727
0.448243
0.320006
1.57729
1.08949
0.760105
1.23164
0.750024
0.57844
1.42239
1.63145
1.15232
0.150134
1.51158
0.242978
1.83752
1.08495
1.27008
0.987501
1.17611
1.11241
1.28168
0.933047
0.981274
1.18691
1.19346
0.875074
2.5651
0.307952
1.67729
0.989316
0.442727
1.2526
1.27582
1.32444
2.00333
0.117521
1.53138
1.53665
1.56705
0.17196
0.238519
2.32621
0.383493
1.05684
1.32616
1.78757
1.38779
0.692751
1.61542
0.247907
0.0499883
1.08449
1.30744
1.37485
1.72986
2.56871
1.02138
1.18848
1.12875
1.02064
1.49129
1.0005
1.67553
0.875244
0.433008
1.01999
1.22548
0.943677
1.58817
0.464725
1.50008
1.47858
1.46561
1.41107
1.5548
0.72369
0.482261
1.42267
1.74187
0.018131
1.05553
2.25967
0.318053
0.615337
0.751578
1.36708
1.14077
1.31353
0.261689
0.385948
0.168011
0.150567
1.3289
1.86553
1.37458
1.77657
1.64639
1.43681
1.34715
1.1318
2.15966
0.811709
1.61836
1.529
0.212327
1.59159
0.844654
1.40382
0.216007
1.80432
0.957169
1.18017
1.73069
1.26209
1.32212
1.46634
0.317965
2.14962
0.845732
0.800749
1.44652
1.89362
0.749149
1.16157
0.470355
1.84609
1.61634
1.68369
0.445386
0.325889
2.0884
1.53893
3.38254
1.15556
0.693109
1.10157
1.4159
1.01981
0.339097
0.577461
2.33377
1.24143
1.56413
1.59822
1.886
1.71507
1.37874
0.646113
1.96077
1.72603
0.143236
1.06219
1.47978
1.22278
1.51715
1.05485
1.93817
0.199751
0.819981
2.24993
1.03501
0.908669
1.99727
1.26048
1.32425
0.0829509
1.36099
1.70909
1.21564
0.794319
0.779791
1.19571
2.10826
0.920514
1.70447
0.696422
1.77757
0.687979
0.998756
1.29541
1.00227
0.223572
1.57383
0.759795
1.09093
1.0406
1.31396
0.422424
1.34569
0.599125
1.63317
2.32619
0.900508
1.6549
1.5352
0.881199
0.287354
0.81235
1.43198
1.0527
1.52937
1.19089
0.919368
0.61727
1.86757
1.81376
1.46593
1.92109
0.820213
0.245172
1.98129
0.482368
2.60973
1.50121
1.09802
0.407404
1.94938
0.985803
1.1649
0.917917
1.07003
1.06694
0.801877
0.571261
1.9206
1.4057
0.553801
0.554212
1.62958
1.02349
1.5045
1.19239
0.970717
1.34665
2.2431
1.84059
1.52682
0.603625
1.59383
1.57146
1.27307
0.505786
1.70482
0.802998
1.06353
1.65357
0.913676
0.907561
1.28857
1.70123
0.79138
1.64921
1.85862
0.708623
1.72426
1.20017
0.766679
1.34951
0.703011
0.296109
1.10109
1.96948
1.13394
1.07813
1.14171
0.790195
1.19978
1.23702
1.93541
0.638134
1.81232
1.81469
1.69503
1.18065
0.940723
1.14983
2.18196
1.27519
0.860626
1.94668
2.26455
1.23541
1.48554
1.54231
1.44773
0.146606
1.84068
0.812865
1.96259
0.960633
0.858116
1.27042
1.75739
0.248392
0.445658
1.30241
0.125161
1.12235
0.962441
1.16742
1.40233
1.16187
0.736253
1.38938
1.03488
0.531838
0.141993
1.70343
0.467891
1.4166
1.17513
1.11588
1.78645
0.599606
1.58702
0.809341
0.980788
1.75208
0.783243
0.803983
1.00079
1.82625
1.1541
1.38937
1.31055
0.51506
1.15989
1.25369
0.797291
0.87412
1.9176
1.44972
0.81471
1.69081
0.558848
0.736511
0.84784
1.17832
0.253552
1.55113
1.23483
0.370179
1.5831
1.53412
1.40395
1.33962
1.43616
0.616871
0.422225
0.370556
1.46993
0.296583
1.08426
0.900045
1.12757
0.975395
1.23136
1.04255
0.0971619
0.628058
0.308129
1.4647
0.554577
1.80384
2.12955
2.02968
0.985682
0.676058
0.684405
1.52047
1.11998
0.77033
2.60428
1.44033
1.30543
0.80445
1.28539
0.166897
2.00519
0.276232
1.20559
1.15419
1.58802
1.54823
1.53365
1.95089
1.69496
1.34931
1.39062
0.573677
1.25793
1.42457
2.35755
1.12377
1.6006
1.38402
1.29422
0.276349
0.722372
0.900891
0.954244
0.460044
1.05795
0.846103
0.592168
1.7439
1.805
1.02203
0.638425
0.935528
0.90083
2.11929
1.0411
1.28806
0.122965
1.02307
3.22418
1.58217
0.160545
1.55616
1.09966
1.12404
1.06798
0.841356
1.80229
2.16169
1.24694
0.743868
1.77004
0.16949
1.17869
0.524022
1.03997
1.38403
1.24533
1.96305
1.14103
0.288648
3.27457
0.864261
0.252842
0.601048
1.78913
0.998176
0.711836
0.339014
0.709392
1.97675
0.828361
2.69984
0.887804
1.96947
1.50612
0.329909
1.31079
1.76058
1.36245
1.43218
0.560218
1.03347
1.63576
0.0217487
0.566293
1.55836
1.45922
1.12087
0.616021
2.54824
0.566734
1.19123
1.24444
0.100183
0.567688
1.31401
1.2049
1.29419
0.79631
1.2133
1.05968
1.65516
1.45564
0.469744
0.786188
0.56164
1.25538
0.345773
1.67007
0.426667
0.795339
0.916542
0.866166
1.24061
1.81109
1.81056
0.810643
1.21484
1.22791
0.0955213
1.14799
1.51558
0.823595
1.39076
2.08264
0.00477254
0.932417
1.13165
1.61733
1.10525
0.565345
1.40104
1.71939
0.951797
2.41935
1.09385
1.01779
0.932693
1.23108
1.36444
0.137821
0.204208
1.24728
0.708722
1.30469
2.90929
1.18724
2.72014
0.603507
1.52247
0.690776
1.46504
1.52348
1.19593
0.980374
1.51172
1.7674
1.39399
1.36563
1.96623
0.203989
1.1764
1.50759
1.74304
2.16064
1.12876
0.976583
1.02864
0.205045
0.158712
0.642902
0.844361
1.23512
0.712042
0.723131
0.0845168
1.56014
1.50413
1.54385
0.867116
0.964143
0.58361
1.42742
0.954136
0.524315
2.14188
1.01876
1.0582
0.938541
0.287439
2.0945
1.8944
1.23625
1.26826
0.835911
0.913382
1.16878
0.741317
0.444951
1.99365
1.05505
1.64424
1.00782
2.30067
1.02205
0.894921
0.96841
1.00346
1.37913
0.489821
0.300971
1.62452
0.425267
1.68572
1.11197
0.00129007
0.611789
0.326876
2.18787
0.863898
1.15316
1.35757
0.863794
2.17775
1.479
0.636645
1.8738
0.331939
1.08
0.660077
2.14765
1.07483
1.11747
1.44298
0.266624
1.89118
1.21943
1.66558
0.301953
1.17024
1.46098
0.7217
0.626308
0.844922
1.29202
0.949053
0.817788
1.08176
1.2146
1.26961
2.45955
0.0934906
1.79866
0.219133
1.06405
1.18582
1.11547
1.54123
0.887587
1.09414
0.575846
1.73141
0.53585
0.648878
0.544064
0.954754
0.0661421
0.0427748
0.596982
1.26091
0.792539
0.94548
0.952169
1.06909
0.440599
1.20798
0.839676
0.768001
0.498905
0.932848
1.22789
0.0640151
0.304008
0.567371
1.68395
0.440565
1.50695
1.2429
1.34533
1.7921
0.945358
0.257698
0.566033
0.750736
2.04092
0.726068
0.582791
0.952674
1.41806
0.760135
1.32887
1.56437
1.60877
0.956434
0.928325
1.29415
0.498551
1.36191
0.515119
1.45159
0.463763
2.43603
1.65863
1.00652
1.39065
0.347454
0.824971
1.73386
1.21016
0.845516
0.846602
1.78369
1.07638
2.39612
0.89142
0.118909
1.47421
1.17093
0.901755
2.48703
0.482903
1.17163
1.59644
1.58763
1.35963
1.1529
0.978807
1.96494
0.634185
0.911576
1.77853
2.583
0.641851
2.08709
0.278782
2.55152
0.171168
0.572501
0.233826
1.20223
0.639918
1.59423
1.18199
1.58208
0.964663
1.8641
1.3062
0.815157
0.660486
0.701946
0.905526
1.68699
0.81607
1.67392
0.13433
2.03729
2.94352
1.38222
0.017007
1.01464
1.79417
0.398686
1.31719
1.51303
1.18212
2.06672
0.389641
0.792862
0.830485
0.562138
1.47849
1.597
1.59776
1.58023
0.438307
1.17271
0.216722
1.73602
0.34568
1.06174
1.78199
1.72276
1.11889
0.630345
1.64459
0.0461882
1.1474
1.01949
1.14151
0.105269
1.00994
0.999646
0.224157
0.637702
2.37198
0.831437
1.04226
1.33678
1.35007
1.29948
0.100484
1.17259
1.57321
0.232702
0.310049
1.29207
0.809527
0.950399
1.46244
1.62309
0.126279
1.46431
0.578018
0.887214
1.33396
1.04448
0.586942
1.25212
2.14089
1.16756
2.32943
1.27926
1.63482
1.37972
0.571812
0.977023
1.57209
0.894725
1.87464
1.10868
1.26694
1.49417
1.45227
1.99156
1.00899
1.39094
0.682307
2.38437
1.01235
0.360171
1.75739
0.614209
1.70426
1.82426
1.44448
0.305522
1.01324
0.690624
0.741567
1.7681
0.879502
1.08931
1.6726
1.76701
0.113957
0.00313103
1.36803
0.98523
0.585995
0.630145
1.80085
1.56502
1.47386
1.31219
0.487735
0.0877387
0.73666
0.524981
0.891109
0.642091
0.690984
1.61999
1.39513
1.14876
1.3953
1.02592
1.25732
1.23387
1.20995
1.40787
1.11145
1.26913
0.140105
1.44799
0.190925
1.35182
2.76612
0.712793
0.061201
0.228323
1.28708
1.65841
0.811682
1.77966
1.29568
0.433921
2.82611
1.20134
1.2057
1.61514
1.1215
0.812087
0.749159
0.778829
1.40266
1.99004
0.987746
0.947074
0.997959
0.472693
0.893194
1.16189
1.28262
2.5442
1.03164
1.01405
1.95086
0.995225
1.4813
0.903584
1.23407
0.542236
2.08941
1.76249
1.40199
0.998965
1.10638
1.83333
0.252949
0.475891
0.0355156
0.76938
1.07869
0.867971
1.1978
0.350823
0.591265
0.689951
1.63658
1.10221
0.19049
1.53329
2.04868
0.640246
1.08784
1.36635
0.855566
0.786977
0.16767
1.78305
0.76737
1.36847
0.496903
2.44863
0.834017
1.64789
0.699961
0.249445
0.263112
1.72576
0.921219
1.73582
2.68725
0.225256
0.33259
0.89945
1.31907
0.764474
1.53153
2.15161
1.41575
1.37934
0.71595
1.89984
1.20335
0.473994
0.876894
2.53803
0.953172
0.371151
1.51376
1.39749
1.07762
0.890645
0.311876
1.19982
0.870467
0.688377
0.515961
0.796023
1.39478
1.16214
1.18685
1.11057
0.597934
1.69563
1.56429
0.531996
0.606238
0.892258
0.859464
0.456756
0.591043
1.24684
0.696989
2.26797
0.426969
0.473613
1.46823
1.02707
0.91522
0.467302
0.537683
0.497341
1.37839
1.47342
0.144167
0.420855
1.74468
0.540273
0.623827
0.347439
0.711971
0.86757
0.497578
1.73622
0.189299
1.80974
0.680449
0.870709
1.89702
0.82615
1.32368
0.939097
0.179688
2.11188
2.22766
0.126064
1.19029
0.632383
0.729639
0.596069
1.14421
0.101995
0.570236
0.861409
0.784789
2.29797
1.12271
2.63952
1.72156
0.834391
1.41814
1.57314
1.70165
0.574462
1.21675
0.551846
1.90036
0.375237
0.566811
0.636687
2.6083
0.304925
2.59193
0.323264
1.6143
0.897083
0.962926
0.759317
2.14031
0.666947
1.3301
1.14693
1.37949
0.60759
0.245174
2.78549
1.91283
0.641569
1.8942
1.0977
0.527569
0.733404
1.23912
0.580912
0.182532
1.93462
0.998167
1.06261
1.36797
2.32821
2.43554
0.108833
0.389465
0.423968
0.828208
1.30312
1.28707
1.15791
0.515252
0.0906458
1.10088
1.25368
0.84774
1.43083
0.890016
1.30663
1.80092
1.18212
1.20088
0.584928
1.11216
0.606065
1.44197
0.332655
0.635974
2.29419
0.416024
0.8205
0.148222
1.11956
0.504694
0.945842
0.344311
0.0157791
0.805062
0.641313
0.64873
2.01688
1.22566
1.63195
2.6914
0.803615
0.71267
0.488405
2.12901
0.0841778
2.28982
2.33517
0.474848
1.2921
0.469926
1.42086
0.640444
1.91368
0.0792703
0.433291
1.20941
0.787195
0.543801
0.351829
1.26794
2.17383
0.261554
0.598589
1.29465
1.44697
0.953214
1.54639
0.27021
1.2323
1.86078
1.42488
0.864374
0.0960275
1.90137
1.37962
3.20503
1.44705
0.798731
0.956534
1.08611
1.07568
0.247279
0.581258
2.65509
0.99204
1.1575
1.15268
1.34142
1.34748
2.15624
0.40776
2.01303
1.59198
0.175683
0.908451
0.808678
1.12506
0.516655
1.91078
1.89152
0.0258991
1.69212
2.08193
1.32284
1.14734
1.99103
1.02485
0.874263
0.402333
0.444258
1.05001
1.7658
0.952453
0.930076
1.04661
2.84155
0.788696
0.909736
0.288998
1.62565
2.00667
0.149132
0.498582
0.414108
0.391193
0.67768
1.8853
0.223722
0.824206
0.746859
0.77784
0.623903
1.78503
0.954599
1.72927
1.43552
1.17741
1.10319
2.11972
0.707229
1.27371
1.77248
0.445205
0.856629
1.55213
0.959306
0.547652
1.90855
1.75577
2.53242
0.714666
1.35735
0.152781
1.75174
1.89721
2.50097
1.6337
0.784435
0.791222
1.63817
0.145803
0.768651
1.40591
0.653515
0.431439
1.96499
0.639571
1.72547
0.939168
0.778238
0.518366
2.16532
0.651367
1.34703
0.365351
2.64483
0.667933
2.48599
1.43506
2.85883
1.18234
2.89618
1.05966
0.46981
0.839124
0.804331
0.306543
0.822387
1.07489
0.265876
0.485546
0.925116
2.08863
0.141832
1.2873
2.48705
0.487615
2.01608
1.15303
0.0985249
0.589502
1.01805
0.671275
1.6002
2.08151
0.492502
0.419336
0.27091
0.829721
0.866893
0.899144
2.09824
0.200459
0.204276
1.60669
2.32663
0.709445
0.845356
0.208685
2.37861
0.808877
0.591611
2.22304
2.39489
0.656141
1.18531
0.939156
0.564199
0.0891084
0.30807
0.429994
0.13522
0.512954
0.471395
1.15486
1.67442
0.319696
1.50619
0.831657
1.5595
0.636355
0.439989
0.544837
1.39301
0.870758
0.103102
0.873628
0.433419
1.01565
0.301959
1.11218
0.149927
0.799863
0.811553
0.297899
1.11279
1.84411
0.974567
0.347081
0.16437
1.74395
0.971058
0.262091
1.20137
1.66571
0.809371
1.01684
0.630805
1.01146
0.750203
0.653722
0.505703
0.432427
2.42678
0.925773
1.19881
1.42982
1.11488
1.41075
0.430107
0.838208
0.313392
1.17057
1.12411
0.217733
1.68281
1.65831
1.18848
1.53601
1.40238
0.238767
0.808446
2.1476
1.51228
1.2529
0.592941
0.565206
0.714916
0.501462
0.964591
1.75268
0.95122
0.4222
0.917385
0.885426
1.91951
1.85139
2.22037
2.21443
0.851279
1.65352
0.799107
0.0976234
1.34843
0.548301
0.310224
0.93205
0.985029
1.16753
0.986669
0.962195
1.71648
0.414692
1.72781
0.291947
1.25519
1.05579
1.1553
1.78281
1.95092
1.16411
0.771967
2.32077
1.26621
1.20172
1.12257
0.585999
1.24887
0.716773
1.07457
0.49139
1.69873
0.0517291
0.486754
0.411917
0.600028
0.0304761
0.407891
1.44279
2.24608
1.01797
0.317102
0.392576
0.725765
2.67139
1.03322
0.86519
0.0546166
0.563918
2.67856
2.13312
1.2698
1.82861
1.06932
1.1371
1.00107
1.59603
2.0387
1.40355
1.76603
0.613445
2.03863
1.6745
0.607771
1.31502
0.974272
1.72699
0.117732
1.98094
0.491309
0.622059
1.07889
1.14404
0.328191
0.39016
1.15572
0.151749
0.0828152
2.00814
0.123935
2.00686
0.601572
1.84165
0.892806
2.5814
1.23099
1.76556
0.989071
2.11593
1.52476
2.1809
0.776099
0.568683
1.2262
0.859492
0.983859
1.31224
1.66146
1.0828
0.0374836
1.6521
0.425741
0.827406
1.70725
0.587005
1.09997
1.21643
1.15134
1.15714
0.461555
1.28709
0.684444
0.908948
2.45151
1.79149
0.530045
0.0418001
0.01384
0.661041
2.7361
0.0225443
0.947471
0.128911
0.190002
1.86331
1.69784
2.32066
1.6877
1.06309
1.05969
0.189261
0.38237
1.65882
1.13435
0.656502
2.23307
1.05068
1.37654
0.765171
2.3964
0.566309
0.0673637
1.19373
0.603739
2.60149
0.655392
0.0155373
0.201886
0.00191762
0.216384
1.00225
0.644135
0.452446
1.10234
0.444328
1.77553
1.63485
0.339513
0.345405
0.0716201
2.1758
1.01069
0.643208
0.89322
1.27075
0.455467
0.90459
1.64858
0.661993
0.825666
2.72469
1.49873
0.893988
2.04589
0.908661
1.18779
1.17508
0.486903
1.08018
1.1929
0.835392
1.29161
0.696935
1.8252
1.29395
0.704887
2.01238
2.48891
1.51704
2.72595
0.390556
0.434981
0.120245
0.860125
1.01948
0.407443
0.727338
1.51113
0.817513
0.486858
1.33133
0.263044
2.70819
1.21701
0.705299
0.382264
1.55771
0.827492
0.849187
0.822885
1.73883
0.0820696
1.21027
0.477692
2.60022
0.766264
0.389555
1.78587
1.11552
0.866751
0.363887
0.349199
1.536
1.06682
1.61638
0.737085
1.46615
0.572509
0.0567488
2.38235
0.732626
1.25687
0.665629
0.716199
2.12647
1.69025
0.541553
1.69993
0.992735
0.622179
0.0937992
0.285693
1.40442
0.857264
0.732569
0.85047
1.4981
2.13217
0.401314
0.928631
0.951667
1.51012
1.27256
0.692611
1.43846
0.309153
0.0536797
0.0491437
0.618583
1.40054
1.43447
1.9672
1.33446
1.98339
0.178337
1.46221
0.550803
0.548199
0.223387
0.564241
0.643261
1.64809
0.705902
0.988466
0.444618
1.3697
0.156464
2.23444
1.10313
1.37673
0.998821
0.864556
0.642868
1.59212
1.1545
1.76183
0.580249
0.600728
1.18628
1.01377
0.621095
2.22268
0.370542
1.64619
0.136204
0.584552
0.241895
1.24865
1.38295
0.708071
2.30572
0.318925
0.090032
1.02776
1.9601
1.82507
0.430308
1.41522
0.313999
1.06045
0.261304
1.17193
1.02894
2.9407
0.865769
1.07706
1.25528
2.35326
1.80201
0.180269
1.6786
0.0409057
1.54081
2.51777
0.826687
1.07015
0.181117
0.207844
0.0229824
1.41343
0.0381472
0.153739
1.43744
0.865531
1.47209
1.05596
0.0577579
1.77146
0.586824
0.258742
1.62219
1.12568
0.305637
1.31436
1.32766
1.0185
1.64811
1.15256
2.86605
1.7382
0.243918
0.262161
2.18177
0.587571
1.25154
1.11134
1.09862
1.759
0.117806
0.532847
2.22478
0.292429
1.57635
0.703796
1.57647
1.64034
1.58741
2.47365
0.596478
0.340171
0.547517
1.11378
2.36115
1.92175
1.85413
0.107019
2.92794
1.83032
0.984073
1.63121
0.194051
0.0645807
1.27737
3.44599
0.475752
1.01645
0.366933
0.452758
0.723091
0.082121
0.23178
1.56952
1.35781
1.05016
2.16104
0.180288
0.596275
2.56164
1.54317
1.09866
0.491566
1.99105
1.02116
0.422203
1.02274
0.967022
0.627827
1.02269
0.506832
0.104625
0.0653268
0.744853
1.08977
2.04277
1.12469
2.31993
0.297363
1.83587
0.945353
0.789418
0.0554302
0.412876
1.02573
0.990837
0.978988
0.0951981
0.825893
0.134611
0.953461
1.57841
1.24897
1.0162
1.33159
1.25023
0.318156
1.02298
0.701809
0.437567
0.801303
1.96306
1.06048
1.13553
0.713406
1.41935
0.709428
0.092488
0.881704
1.00814
0.472368
1.23033
0.640441
0.878676
0.795632
1.61054
1.29459
0.407443
0.971043
0.925918
1.04395
0.583828
0.2785
2.10866
1.00765
2.66929
1.99745
1.11717
0.481147
0.796311
0.766395
0.0553791
0.0187974
0.00604963
0.781272
2.34489
1.95344
1.94091
0.24425