/*--------------------------------*- C++ -*----------------------------------*\
| =========                 |                                                 |
| \\      /  F ield         | OpenFOAM: The Open Source CFD Toolbox           |
|  \\    /   O peration     | Version:  v2012                                 |
|   \\  /    A nd           | Website:  www.openfoam.com                      |
|    \\/     M anipulation  |                                                 |
\*---------------------------------------------------------------------------*/
FoamFile
{
    version     2.0;
    format      ascii;
    class       volScalarField;
    location    "50";
    object      aU;
}
// * * * * * * * * * * * * * * * * * * * * * * * * * * * * * * * * * * * * * //

dimensions      [0 0 0 0 0 0 0];


internalField   nonuniform List<scalar> 
65536
(
0.000588551
0.000575842
0.000758001
0.000636124
0.000607351
0.000626098
0.000848766
0.000497357
0.000244192
0.000642037
0.000863678
0.000725821
0.000621105
0.000134045
0.00050985
0.000226141
0.000607928
0.000740757
0.000579414
0.000551461
0.000380138
0.000161751
0.000773751
0.000867887
0.00105411
0.000663375
0.000369323
0.000477449
0.000271412
0.000297122
0.000451348
0.000894834
0.000913515
0.000695578
0.000356391
0.000146023
0.000382375
0.000557735
0.000594867
0.000649475
0.000179904
0.000421756
0.000519999
0.000621953
0.000468828
0.000552004
0.000437745
0.000212224
0.000336902
0.000510685
0.000149108
0.000283793
0.000189483
0.00018501
0.000150342
0.000287706
0.000227898
0.000434319
0.000843627
0.000741075
7.45547e-05
0.000413629
0.00020754
0.000428274
0.000275627
9.46503e-05
0.00054995
0.0009801
0.000686298
0.000306946
0.000464935
0.000381439
0.000640276
0.000357648
0.000379645
0.000266279
0.000577783
0.000543072
0.00037251
0.000222579
0.00039176
0.000544256
0.000445214
0.0004592
0.000219207
0.000204478
0.000331648
0.000337204
0.000593124
0.000489021
0.000301066
0.000327611
0.000420415
0.000471988
0.00036304
0.000155932
0.00048973
0.000373039
0.000370846
0.000250817
0.000202726
0.000500015
9.63331e-05
0.000635182
0.00063982
0.000827233
0.000420618
0.000600397
0.000599891
0.000388633
0.000235919
0.000419294
0.000419275
0.000505702
0.000463605
0.000470888
0.000447653
0.00034223
0.000433651
0.000564145
0.000649914
0.000256142
0.000184691
0.000317701
0.000472154
0.000333434
0.000432711
0.000540496
0.00028206
0.000388637
0.000374951
0.000196929
0.000209898
0.000282985
0.000246076
0.000226404
0.000225577
0.000434753
0.000515748
0.000549007
0.00040227
0.000330751
0.000337644
0.000364989
0.000300978
0.000360222
0.000746809
0.0004337
0.000352941
0.000632908
0.000682029
0.000284563
0.000335009
0.000205871
0.000215665
0.000178129
0.000104165
0.000119854
0.000299358
0.00022852
0.000352555
0.000480301
0.00041754
0.000340733
0.000125541
0.000269736
0.000230767
0.00040913
0.000324256
0.000345446
0.000392698
0.00043803
0.000434642
0.000616604
0.000345203
0.00042395
0.000312518
0.00046878
0.000566984
0.00052435
0.00062848
0.000168251
7.64017e-05
0.000282413
0.000701223
0.000466427
0.000405802
0.000382269
0.000587229
0.000542976
0.00039082
0.000154926
0.000303878
0.000260057
0.000250133
0.000379556
0.000660501
0.000638479
0.000356535
0.000387666
0.000342232
0.000223419
0.000409079
0.000634208
0.00078535
0.000626699
0.000361131
0.000439335
0.000386038
0.000369846
0.000352988
0.000190418
0.000325422
0.000545534
0.000401851
0.000639336
0.000563537
0.000378544
0.000524266
0.000562201
0.000234757
0.000101351
0.000302017
0.00019242
0.000351433
0.000401968
0.000555392
0.000471422
0.000210699
0.00020996
0.000439882
0.000737464
0.000634264
0.000734521
0.00053276
0.000271622
0.000123401
0.00030501
0.000430596
0.000295477
0.000436149
0.000109803
0.000413097
0.00039075
0.000486836
0.000509573
0.000400429
0.000542309
0.000417716
0.000401891
0.00065765
0.00077512
0.000392303
0.000524733
0.000360166
0.000501452
0.000387814
0.00038516
0.000362295
0.00034618
0.000212871
0.00047748
0.000673839
0.000639682
0.000303458
0.000219395
0.000338827
0.000273801
0.000385926
0.000486583
0.000371321
0.00068789
0.000536013
0.000388042
0.000321974
0.000174957
0.00024568
0.000396537
0.000415967
0.000383284
0.000228176
0.000164445
0.000340775
0.000843399
0.000592923
0.000522978
0.000309898
0.000565762
0.000415081
0.000243304
0.000476053
0.000470455
0.000530701
0.00038974
0.000389312
0.000370379
0.000233432
0.000168157
0.000331613
0.000485198
0.000332981
0.000168521
0.000194228
0.000370383
0.00021601
0.000528116
0.000278341
0.000248934
0.000201412
6.13402e-05
9.21358e-05
0.000334425
0.000584373
0.000323288
0.00030292
0.000383243
0.000418296
0.000202366
0.000401285
0.000481357
0.00049976
0.000523933
0.00041979
0.000369556
0.00018893
0.000296651
0.000288365
0.000395585
0.000291463
0.000400771
0.00045162
0.000581262
0.00047534
0.000280222
0.000114721
0.000343978
0.000377818
0.000410489
0.000299954
0.000360381
0.000440574
0.00059866
0.000427614
0.000190984
0.000391896
0.000604051
0.000505
0.000458876
4.42367e-05
0.000337037
0.000257041
0.000488095
0.000338294
0.000206434
0.000114003
0.000131884
0.000605568
0.000704434
0.000431942
0.000220347
0.000119143
0.000261259
0.000134664
0.000318664
0.000307859
0.000246676
0.000317105
0.000306048
0.000399229
0.000453648
0.000540564
0.000402297
0.000326932
0.000413424
0.000182295
2.41882e-05
6.49856e-05
0.000296941
0.000300708
0.000522286
0.000399946
0.000389091
0.000161138
0.000616643
0.000601245
0.000656027
0.000570223
0.000400842
0.000648437
0.000356936
0.000370528
0.000368713
0.000362411
0.000253302
4.43944e-05
0.000187393
0.000266635
0.000390235
0.000339649
0.000208887
0.000330208
0.000205718
0.000190527
0.000261989
0.000632747
0.000361024
0.000441936
0.000153793
6.61819e-05
0.000330554
0.000481053
0.000381322
0.000521296
0.000528384
0.000491228
0.000549323
0.000430683
0.000475397
0.000276379
0.000400147
0.000467465
0.000245881
0.000303153
3.07636e-05
0.000381022
0.000304936
0.000555108
0.000477917
0.00021827
0.000261966
0.000173978
0.000292525
0.000268766
0.000374211
9.59068e-05
0.00015276
0.000309409
0.000426431
0.000654824
0.000555637
0.000156504
0.000597623
0.000288824
5.92958e-05
0.000194885
0.000141914
0.000340556
0.000345753
0.000337415
0.000273972
0.000472684
0.000645794
0.000763373
0.000600194
0.000352915
0.000168199
0.000340194
0.00054791
0.000619425
0.000361734
9.37679e-05
0.000237515
0.00036021
0.000425868
0.000245238
0.000403578
0.000421458
0.000366075
0.000121281
0.000370573
0.000412958
0.000423531
0.000382914
0.000348484
0.000333389
0.000326031
0.000104772
0.000320623
0.000578656
0.000653695
0.000316431
0.000434428
0.000549868
0.000743738
0.000505226
0.000487601
0.000161252
0.000251178
0.000619913
0.000809317
0.000120233
6.84059e-05
0.000167881
0.000141332
0.000331363
0.000394948
0.000523516
0.000507319
0.000548153
0.000370774
0.000291465
0.0006027
0.000621577
0.000702894
0.000381626
0.000400575
0.000326355
0.000351152
0.000519066
0.000445427
0.000619376
0.000684374
0.000687433
0.000784726
0.00027569
0.00072717
0.00077047
0.000939596
0.000510023
0.000118253
0.000730234
0.000389915
0.000842171
0.000597295
0.00036374
0.000745041
0.000269185
0.000875445
0.000628505
0.000325516
0.000704293
0.000753165
0.000147924
0.000370997
0.000204362
0.000831401
0.000651817
0.00069293
0.000571137
0.000436324
0.000882871
0.00034184
0.000612734
0.000581836
0.000773094
0.000381866
0.000573226
0.000168912
0.000433871
0.000606782
0.000425541
0.000230874
0.00050919
0.000620785
0.000431642
0.000127909
0.000895918
0.000232423
0.000498111
0.000168082
0.000632228
0.000105756
0.000578991
0.000315824
0.000267917
0.00025209
5.87672e-05
0.000213735
0.000140918
0.001132
0.000345482
0.00035912
0.000605396
0.000287012
0.000762103
0.000439723
0.000211734
0.000108858
0.000792089
0.000737913
0.000458452
0.000388697
0.000155798
0.000848923
0.000587113
0.00100366
6.67419e-05
0.000528905
0.000260259
0.000849084
9.25087e-05
8.30937e-05
0.000604616
0.000271156
0.000540804
0.000336909
0.000418217
2.31404e-05
0.000310781
0.000602305
0.000221418
0.000692363
0.000387917
8.89078e-05
0.000641488
0.000401392
0.00024051
0.000118591
0.000339861
0.000874228
7.70761e-05
0.000217989
0.000667367
0.000451539
0.000212619
0.000845677
0.000162014
0.000453811
0.000929644
0.000281684
0.000310333
0.000696279
0.000497686
0.00043358
0.000549842
0.000613486
0.000511394
0.000382637
0.000288666
0.000591386
0.000504619
0.000397922
0.000790081
0.000198418
4.45542e-05
0.000229362
0.000460693
0.000351365
0.000631641
4.32745e-05
0.00094725
0.000709738
0.000275837
0.000157577
0.000202583
0.000285362
0.000307248
8.80734e-05
0.000386825
0.000713141
0.00034802
0.000688675
0.000341864
0.000134735
0.000577908
0.000417924
4.97148e-05
0.000441649
0.000569946
0.000561211
0.000228996
0.000400163
0.000473547
0.000391532
0.000302633
0.000360264
0.000189183
0.000552436
0.00067868
0.000546037
0.000290804
0.000412441
9.72924e-05
0.000835022
0.00045405
0.000293656
0.000351564
0.000148011
0.00045667
0.000133873
0.000652413
0.00071526
0.000297993
0.000502677
0.000131356
0.000321806
0.000720859
6.2123e-05
0.000604716
0.00021442
0.000467279
0.000604153
8.37265e-05
0.000692179
0.000317263
0.000533946
0.000217328
0.000435173
0.000264794
0.000454798
0.000461273
0.000792082
8.93865e-05
0.000155769
0.000391164
0.000616216
0.000144112
0.000426607
0.00052468
0.000387463
0.000765323
0.000280154
0.000321833
0.000437368
0.000692607
0.000566997
0.000494067
0.000525772
0.000560049
0.000142301
0.000505735
0.000707556
0.000124033
0.000580921
7.57493e-05
0.000351407
0.000939577
0.000631065
0.000385034
0.00050749
0.000520211
0.000347358
0.000424474
0.000458907
0.000251089
0.000354367
0.000191135
0.000816486
0.000974276
0.000198442
0.000214293
0.000391045
0.000864908
6.43753e-05
0.000871629
0.000540462
0.000493757
0.000153923
0.000113382
0.000330251
0.000308998
0.000401037
0.00070471
0.000488205
0.000175914
0.000857253
0.000294382
0.000280999
0.000982629
0.000279436
0.000548323
0.000355132
0.000577701
8.64425e-05
0.000781951
0.000349575
0.000762941
0.000209446
0.000374883
0.000530736
0.00041129
5.19382e-05
0.000631112
0.000808592
0.000444509
0.000341557
0.000801373
0.000328063
0.000293513
0.000682325
0.000286826
0.000120511
0.000793836
0.000179497
0.000766241
0.000658529
0.000195047
0.00064536
0.0005906
0.000256043
0.000489869
0.000386018
0.000431628
0.000100702
0.000345064
0.000312953
0.000834946
0.000299251
0.000429654
0.000280469
0.000295668
0.000296558
0.000589743
0.00100187
0.000636283
0.000318921
0.000396655
0.000631261
0.000172123
0.000118934
0.000266156
0.000237932
0.000714307
0.000340915
0.000382267
0.000567706
0.000769505
0.000250514
0.000567525
0.000335616
0.00017369
0.000228146
0.000281856
0.000444763
3.11971e-05
0.000703666
0.000594984
0.000178826
0.000521353
0.000471367
0.000293825
0.000599971
0.000583061
0.000399353
0.000314725
0.000823369
0.000948779
0.000128927
0.00020324
0.000460817
0.00104234
0.000267483
0.000522691
0.000574562
0.000645129
0.000330119
0.000240388
0.000157319
0.000844835
0.00079567
0.000391729
0.000395696
0.000738158
0.000196244
0.000509136
0.000458599
0.00030273
0.000440644
0.000812503
0.000328606
0.000528858
0.000395665
0.000525989
0.000329633
0.000432542
0.000201888
0.000398828
0.000492572
0.000574866
0.000799048
0.000385255
0.000158659
0.000408716
0.000373789
0.000314709
0.000517592
0.000111122
0.000194928
0.000694154
0.000469572
0.000108388
0.000536298
0.000660835
0.000553452
0.000905712
0.000220611
0.00021363
0.000217839
0.000112341
0.000203898
0.000585783
0.000385269
0.00057573
0.000239441
0.000353016
0.000648265
0.000600081
0.000308145
0.000701135
0.000291647
0.000254798
0.000514381
0.000451168
0.000767285
0.00103121
0.000245013
0.000148609
0.000360644
0.000444943
0.000242701
0.000160681
0.000636962
0.000187385
0.000293707
0.000219881
0.000530561
0.000348412
0.000724459
0.000498584
0.000424393
0.000196974
0.00017812
0.000591822
0.000732244
0.000372285
0.000389405
0.00067844
0.000221435
0.000754554
0.000282448
0.000420011
0.00028322
8.46409e-05
0.000916971
0.000233334
0.000209302
9.1049e-05
0.000881314
0.000253528
0.000325351
0.00069689
0.000137918
0.000324853
0.000409198
0.000390688
0.000142331
0.000554032
0.000544056
0.000372523
0.000423801
0.000593918
0.000295067
0.000677893
0.000206841
0.000326466
0.000271991
0.00013354
0.00015634
0.000185086
0.000533438
0.000468135
0.000343194
0.000252862
0.000582832
0.000904497
0.00060045
0.000165828
0.000111132
0.000171412
0.000601018
0.000909067
0.000328077
0.000242716
1.89012e-05
0.000766977
0.000795282
0.000348005
0.000357075
0.000835481
2.55595e-05
5.9138e-05
0.000140758
0.000944663
0.000794856
0.000273638
0.000750336
0.000964966
0.000117674
0.000260392
0.000160026
0.000858177
0.000521935
0.000450454
0.000122322
0.0004796
0.000517087
0.000770597
0.000114437
0.000429786
0.000490079
0.000721691
0.000512995
0.000530117
0.000278229
0.000277997
0.000172817
0.000446723
0.000717824
0.000364947
0.00060226
0.000557253
0.000726734
0.000211042
0.000358114
0.000783725
0.000324335
0.000961198
0.00046426
0.00045004
0.000643973
0.000163223
0.000600038
0.000467398
0.000526186
0.000820737
0.000571117
0.000690442
0.000273082
0.000282738
0.000546663
0.000533951
0.000703408
0.000400549
0.000750031
0.000469891
0.000286711
0.000472622
0.000590846
4.01723e-05
0.000859081
0.000696992
0.000597206
0.000539021
0.000654403
0.000184944
0.000117403
0.000323572
0.000483085
0.00094751
0.000226639
0.000598248
0.000964836
0.000243058
0.000918522
0.000115912
0.000649849
0.000497392
0.000555835
0.000234075
6.18526e-05
0.000623419
0.000643618
0.000271167
0.000435345
0.000492656
0.000494431
0.000246832
0.000483264
0.00052633
0.00084469
0.000630675
0.000173514
0.00046543
0.000777613
0.000466025
0.000562192
0.000124245
0.000322976
0.000287189
0.000267568
0.000626831
0.000821325
0.000708631
0.00076112
0.000308065
0.000160274
0.000629119
0.000763583
0.000412137
0.000363128
0.000336998
0.000967985
0.000351455
0.00050632
0.000829788
0.000511944
0.00135279
0.000923553
0.0003156
0.000275755
0.000799085
0.000622907
0.000593907
0.000320728
0.000395382
0.000532791
0.000292203
0.000623341
0.000206464
0.000402345
0.000321758
0.000444955
0.000712191
0.000569166
0.000588088
0.000167034
0.000363196
0.000417098
0.000372311
0.000211301
0.000629729
0.000622273
0.000382826
0.000352539
0.000452193
0.000479224
0.000490418
0.000421889
0.000470671
0.000678559
0.000603921
0.000508008
0.000237787
0.000652424
0.000425646
0.000749474
0.000671986
0.000720631
0.000215451
0.000396176
0.000657728
0.000529215
0.00053283
0.000632906
0.000436636
0.000168874
0.00027348
0.000152945
0.000264287
0.000265973
0.000418276
0.000982471
0.00078055
0.000820858
0.000674622
0.000189367
0.000132551
0.000358215
0.000231768
0.000257489
0.000618997
0.000635207
0.000820597
0.000389255
0.000553935
0.000314129
0.000348869
0.00047565
0.000205526
0.000350692
0.00042175
7.77756e-05
0.000292033
0.000312603
0.000505914
0.000437554
0.000123956
0.000191505
0.000152853
0.000541596
0.000457294
0.000778572
0.000417093
0.000220684
0.000343866
0.000758484
0.000310035
0.000492352
0.000292529
0.000291182
0.00039384
0.000603683
0.000681245
0.000187614
0.000844829
0.000528463
0.000445624
0.000601775
0.00043451
0.000837014
0.000198447
0.000555778
0.00032261
0.000455171
0.000721519
0.000347774
0.000324318
0.000368687
0.000551756
0.000344204
0.000366559
0.000116497
0.000278469
0.000573901
0.000518869
0.000403563
0.000427473
0.000360873
0.000212064
0.000501236
0.000216826
0.000530415
0.000461793
0.000689792
0.000400421
0.000476003
0.000296033
0.000648566
0.000559387
0.000541231
0.00031655
0.000618287
0.00048957
0.000299785
0.000596807
0.000316173
0.000152411
0.000452268
0.000472886
0.000974389
0.00058017
0.000259464
0.000464161
0.000614809
0.000366139
0.000163164
0.00048494
0.000216175
0.000628646
0.000808935
0.000809778
0.000581858
0.000390445
0.000126902
0.000424711
0.000688621
0.000420544
0.000760479
0.00051614
0.000328841
7.63306e-05
0.000285654
0.000446055
0.000435519
0.000770715
0.000598325
0.00090832
0.000349119
0.000509433
0.000619811
0.00074388
0.00100432
0.000271314
0.000648118
8.46513e-05
0.000508325
0.000459512
0.000929
0.000375328
0.000486597
0.000164118
0.000309807
0.000246995
0.000585676
0.000786889
0.000593557
0.000791696
0.000680853
0.00052285
0.000695196
0.000752908
0.000357938
0.000566047
0.000691526
0.000418641
0.000992699
0.000785436
0.000521535
0.00100092
0.000637566
0.000477756
0.000533424
5.47703e-05
0.000599193
0.000489517
0.00053218
0.000231664
0.00032732
0.000447261
0.000589872
0.000352177
0.000407483
0.000287178
0.000725851
0.000453666
0.0013116
0.00084488
0.000750038
0.000520865
0.000624323
0.000423749
7.15911e-05
0.000194986
0.000548158
0.000420938
0.00052062
0.000776313
0.000488255
0.000783789
0.000679569
0.000435058
0.000409242
0.000430675
0.000392369
0.000313317
0.000113389
0.000277102
0.000530587
0.000651928
0.000752576
0.000559122
0.000149891
0.000605971
0.000521731
0.000454376
0.000604378
0.000825028
0.00107225
0.000635789
0.000778522
0.000239192
0.000685023
0.000478118
0.00097822
0.000121401
0.000572974
0.000388046
0.000291116
0.00033481
0.000739901
0.000720896
0.000763262
0.00101901
0.000496708
0.000511018
0.000669403
0.000420919
0.00019375
0.000346269
0.000728604
0.000870357
0.000462525
0.000937058
0.000477245
0.000579644
0.000534273
0.000374189
0.000626315
0.000366839
0.000299093
0.000770385
0.000794094
0.00032245
4.16037e-05
0.000314773
0.000643118
0.000275351
0.000478864
0.00046225
0.000554836
0.00056174
0.000399337
0.0006017
0.000500755
0.000272258
0.000864981
0.00047644
0.000772232
0.000257889
0.000172203
0.000119985
0.000476756
0.000326448
0.000213606
0.000161712
0.000543799
0.00031771
0.000591914
0.000263851
0.000539134
0.000521494
0.000226104
0.000485306
0.000351415
0.000933321
0.00127462
0.00099522
0.00069717
0.000135729
0.000413699
0.000362341
0.000228774
0.000517391
0.000369294
0.000507319
2.27504e-05
0.000478257
0.00018262
0.000765248
0.000388294
0.000121502
6.61379e-05
0.00051922
0.000358049
0.000486577
0.000329522
0.000580896
0.000495844
0.000523516
0.000807532
0.000691929
0.000664048
0.00040694
0.000157689
0.000569704
0.000364811
0.000739901
0.000410874
0.000430176
0.000289856
0.000372819
0.000456779
0.00062285
0.000780707
3.56514e-05
0.000585948
5.96178e-05
0.000602155
0.000431106
0.000314406
0.000749703
0.000771318
0.000629592
0.000220218
0.000219899
0.00056413
0.000190609
7.01519e-05
0.00028155
6.78749e-05
0.000328456
0.000655101
0.000584564
0.0004504
0.000419307
0.000716286
0.000471236
0.000504204
0.000455798
0.000320568
0.000416845
0.000701394
0.000791049
0.000657157
0.000176005
0.000455464
0.000686888
0.00082677
0.000896773
0.000425001
0.000704818
0.00051833
0.000119284
0.000497071
0.000926626
0.000691162
0.00112328
0.000911023
0.000586079
0.000669115
0.000203258
0.000505741
0.000680241
0.000385364
0.000367001
0.000288775
0.000195733
0.000533691
0.000554952
0.000622551
0.000372401
0.000290083
0.000737347
0.000270022
0.000421689
0.000380434
0.000190251
0.000244232
0.000171602
0.000228883
0.000223792
0.000477659
0.00075215
0.000636813
0.000308667
0.000760019
0.000228108
0.000359721
0.000582893
0.00105336
0.000314306
0.000753466
0.00060627
0.000211559
0.000616824
0.000263099
0.000459667
0.000593101
0.000220543
0.000418384
0.000347639
0.000100781
0.000527401
0.000429539
0.000195973
0.000699441
0.00018189
0.000399439
0.000743116
0.00021505
0.000202333
0.000551254
0.000549113
0.000479149
0.00042046
0.000654992
0.000113876
8.46807e-05
0.000283479
0.000196356
0.000362741
0.000819968
0.000271816
0.000913989
0.000364959
0.000654487
0.000332948
0.000332968
0.000143066
0.000601102
0.000294266
0.000385656
0.000482537
0.000418936
0.000531948
0.00054957
0.000422647
0.000140611
0.000390605
0.00042519
0.000290073
0.000881168
0.000595363
9.07146e-05
0.000535019
0.000694297
0.000198676
0.000497935
0.000393156
0.000257492
0.000509422
9.26722e-05
0.000715812
0.000112535
0.000820437
0.000561308
0.000528574
0.000253289
0.000528923
0.000356068
0.000684514
0.000677682
0.000247836
0.000789576
0.000553957
0.00037321
0.000738061
0.000220737
0.00133897
0.000499922
0.000444184
2.49235e-05
0.000770759
0.000320561
0.000594291
0.000532673
3.24699e-05
0.000459876
0.000217923
0.000478138
0.000190719
0.000517934
0.000404047
0.000156788
0.000858587
4.03559e-05
0.000574117
0.000178757
0.000251899
0.000404195
0.000425178
0.000191839
0.000617026
0.000122391
0.000609332
0.000375157
7.65933e-05
0.000853328
0.000468726
0.000417662
0.000378345
0.000567452
0.000440451
0.000353026
0.000350018
0.000370621
0.000401905
0.000671244
0.000511792
0.000435273
0.000591849
0.000143584
0.000688636
0.000295585
0.000524496
0.000589362
0.000170923
0.00029404
7.11716e-05
0.000231395
6.82341e-05
0.0002537
9.86557e-05
0.0010848
0.000325356
0.000850176
0.000555119
5.54036e-05
0.00013877
9.93484e-05
0.000215944
0.000439254
0.000559802
0.000575644
0.000758498
0.000462192
0.000356705
0.000161881
0.000494254
0.000286389
0.000241044
0.000112694
3.79061e-05
0.000291562
0.000127861
0.000304228
0.000414794
0.000517781
0.00013322
8.12097e-05
0.000169998
0.000326029
0.000336838
0.000714571
0.00038671
0.000221912
0.000408916
0.000108238
0.000481747
0.000366903
0.000313838
4.27633e-05
0.000415551
0.000626095
0.000419595
0.000316657
0.000811125
0.000133727
0.000287069
0.000560631
0.000256051
0.000715698
0.00032657
0.000234753
0.000351374
0.000159431
0.000631403
0.000193355
0.000371049
0.00026747
0.000372469
0.000553158
0.000347552
0.000345031
0.000342426
0.000171123
0.000502907
0.000517589
0.000263514
6.28112e-05
0.000123615
0.000258544
0.000364284
0.000422971
6.23974e-05
0.000588017
0.000455811
0.000250311
0.000453375
0.000411483
0.00054187
0.000422969
0.000263024
0.000618444
0.00020483
0.000624024
0.000622771
0.000416122
0.000178174
0.000216114
0.000492818
0.000625999
0.000537486
0.000174922
0.000483327
0.000248661
0.000190591
0.000289892
0.000238321
0.000253454
0.000572079
0.000733109
0.000675965
0.000390919
0.000323072
0.000187517
0.000334376
0.000505255
0.000448946
0.000641705
0.000420534
0.000336314
0.000388
1.86323e-05
0.000352091
0.000273727
0.000686526
0.000460866
0.000900958
0.000183219
0.00027724
0.000916086
0.000313322
0.000923323
0.000377426
0.000241792
0.000120165
0.000268551
0.000277319
0.000776662
0.000134857
0.000321696
0.000175279
0.000174972
0.000209534
0.000606777
0.000362346
0.000810067
0.000489818
0.000719534
0.000251401
0.00063557
0.000402414
0.000518496
0.000198098
0.000417195
0.000148152
0.000974687
0.000592818
0.000439894
0.00101558
0.000579921
0.000231753
0.000428191
0.000373946
0.000462533
0.000134352
0.000424298
0.00027143
2.78766e-05
0.000635389
0.000354826
0.000270145
0.000264697
0.000432348
0.000598487
0.000504154
0.000729425
0.000850674
0.000724475
0.000600166
0.000231286
0.000502433
0.000152021
0.000230478
0.000528193
0.000276315
0.000312633
0.000609016
0.000451465
0.000343102
0.000710952
0.000240184
0.000374717
0.000492883
0.000380264
1.89869e-05
0.000131435
0.000344092
0.000349085
0.000492473
0.000760389
0.000215601
0.000248949
0.000330311
0.000366268
0.00015759
0.000469419
0.000718593
0.0009615
6.35053e-05
0.000754609
0.00021128
0.000541331
0.0004177
0.00068927
0.000331326
5.57374e-05
0.000665069
0.000150472
0.000483888
0.000872825
0.000307398
0.000583915
0.00101205
0.000337883
0.000244437
0.000708745
0.000123049
0.0002743
0.000254007
0.000688845
0.000632088
0.000422631
0.000822976
0.000427622
0.000658465
0.000458109
0.000294952
0.000505467
0.000497432
0.00014625
0.000785792
0.000542527
0.000483507
0.000318693
0.000224769
0.000469901
0.000184429
0.000546157
0.000500165
0.000318224
0.000409663
9.79812e-05
0.00047993
0.000352393
0.000255845
0.00076874
0.000465813
0.000589949
0.000196724
0.000116128
0.000269249
0.000181822
0.000317367
7.23079e-05
0.000225897
0.000194515
0.000544057
0.000295572
0.000462529
0.000437729
0.000109538
0.000293553
0.000293809
0.000406829
0.000777958
0.00122483
0.000683524
0.000783295
0.000216601
0.000419554
0.000201259
0.000366043
0.000369025
0.000139978
0.000446609
0.000120469
0.000358234
0.000214926
0.000571944
0.000256537
0.000211612
5.3887e-05
0.000370197
0.000413933
0.000641081
0.000151105
0.000612179
0.000573059
0.000101095
0.000636651
0.000206898
0.000742152
0.000127669
0.00043332
0.000271302
0.00031015
0.000735249
0.000487524
0.000201055
0.000305825
7.71725e-05
0.000437996
0.000237228
0.00072854
0.000163946
0.000124326
0.00040438
0.000269084
0.000403331
0.000104576
0.00079456
0.000831139
0.000220151
6.71395e-05
8.65492e-05
0.000459896
3.18696e-05
0.000210715
3.84691e-05
0.00022317
0.000283498
0.000359376
0.000595889
0.000584889
0.000528344
0.000222579
0.000221252
0.000390662
0.000412338
0.000368537
4.46167e-05
0.000534972
0.000499323
0.000659405
0.000198972
0.000486017
0.000534522
0.00043668
0.000874189
0.00060194
0.000127135
0.000660375
0.000230467
0.00036102
0.000747615
0.000205723
0.00111798
0.000710455
0.000247977
0.000669056
0.00020626
0.00050789
0.00023831
0.000384314
0.000241628
0.000256516
0.000211981
0.00042279
8.65996e-05
0.000534641
0.000132576
0.000509045
0.000325204
0.000329332
0.000497511
0.000479222
0.000290102
0.000216626
0.000256713
0.000172465
0.000106636
0.000400343
0.0006629
0.000419771
0.000303277
0.000396893
0.00040175
0.000222883
6.40393e-05
0.000984732
0.000390319
0.000453832
0.000639371
0.000351506
0.000252836
0.000270836
0.000709977
0.000717917
7.92987e-05
7.33757e-05
0.00033544
4.02052e-05
0.00048596
0.000176593
0.000547848
0.000429956
0.00032227
0.000352382
0.000863561
0.000186247
0.000169162
0.000477282
0.000647612
0.000417476
0.000481148
0.000444398
0.000351562
0.000131015
0.000410174
0.000278001
0.000207516
0.000818228
0.000110766
0.00055482
0.000406725
0.000411949
0.000498321
0.000223221
0.000480123
0.000449396
0.000460117
0.000195396
0.000572797
0.000298173
0.000892127
0.00047515
0.000151113
0.000178151
0.000349826
0.000400789
0.000731676
0.000982638
0.000514515
0.000279118
0.000639219
0.000744085
0.000146355
0.000306694
0.000499615
0.000213111
0.000630353
4.47786e-05
0.000625918
0.000246084
0.00106127
0.000604384
0.000597912
0.000283366
0.00047594
0.000300614
0.00066535
0.000801999
0.00011488
0.000522788
0.000532927
0.000371712
0.000658745
0.000475916
0.00138057
0.000537211
0.000640391
4.31042e-05
0.000644291
0.000334439
0.000441542
0.000486686
0.000221541
0.000314765
0.000272136
0.000304093
0.000360365
0.000491609
0.00034132
0.000358719
0.000827233
0.000122109
0.000579747
0.000180654
0.000300205
0.000191402
0.000200983
0.00032721
0.000747574
0.000187869
0.000764579
0.000329273
0.000529976
0.000854296
0.000560739
0.000352352
0.000384026
0.00058104
0.000559141
0.000257452
0.000276721
0.000265191
0.000715724
0.000529724
0.000643228
0.000162565
0.000418608
0.000413349
0.000737447
0.000228063
0.000587404
0.000367287
0.000186004
0.0003913
0.000159612
0.00035247
7.75115e-05
0.000275692
0.000339185
0.00103166
0.000158731
0.000891361
0.000535353
0.000166824
3.07285e-05
9.779e-05
0.000162493
0.000711396
0.000514331
0.000569548
0.000524254
0.000523284
0.000273805
0.000262715
0.000584168
0.000179009
0.000538582
8.61424e-05
0.000239035
0.000167781
0.000313535
0.000368981
0.000645034
0.000501606
0.000147868
0.00038212
0.000294847
0.000521621
0.000537288
0.000434805
0.000505941
0.000251565
0.000466676
0.000269621
0.000631626
0.000172975
0.000231402
0.000220624
0.000565568
0.000647756
6.09372e-05
0.000521531
0.000735402
0.000173709
0.000366223
0.000313338
0.000404263
0.000354087
0.000214961
1.31297e-05
0.000417765
0.00045218
0.000604994
0.00025689
0.000394087
0.0003589
0.000412811
0.000714388
0.000304186
0.000330118
0.000325714
0.000412811
0.000235443
0.000499573
0.00039962
4.5184e-05
0.00013603
0.000149063
0.000292316
0.000344848
0.000119821
0.00076781
0.000419753
0.000267119
0.000454607
0.000158254
0.000655719
0.000376617
0.000363158
0.000646385
0.000121422
0.000743177
2.96861e-05
0.000165817
0.000272703
0.000368453
0.000354294
0.000554236
0.000524321
0.000211916
0.000496994
0.000120427
0.000136786
0.000131868
0.000526191
0.000237175
0.000183088
0.000629012
0.000678521
0.000208492
0.000470963
0.000405164
8.38574e-05
0.000176029
0.000750013
0.000465507
0.000473688
0.000346642
0.000354357
0.000190502
0.000305788
0.000385226
0.000668052
0.000571408
0.000904502
0.000429431
0.000344499
0.00107893
0.00023747
0.000816206
0.000447846
0.000275353
2.84613e-05
0.000297162
0.00023788
0.000774161
0.000147462
0.000304677
8.42418e-05
0.000111509
0.000189013
0.000430632
0.000204862
0.000884818
0.00010807
0.00074005
0.00018741
0.00053631
0.000243098
0.00039494
0.000225613
0.000137967
0.00017171
0.000912808
0.000766218
0.000549431
0.00092456
0.000320363
0.000347231
0.000186093
0.000269227
0.000133686
0.000156603
0.000471224
0.000366296
0.000197545
0.000440532
0.000335793
0.000356788
0.000314746
0.000347877
0.000398228
0.000681995
0.000433031
0.000837337
0.00060437
0.000628842
0.000319918
0.000789136
0.000262161
0.000405461
0.000149865
0.000176615
0.000230659
0.000592428
0.000296794
0.000346197
0.000210922
0.000316442
0.000413791
0.000493159
0.000314819
0.000123037
0.000199228
0.000499925
0.000300479
0.000731773
0.00083256
0.000321723
0.000190537
0.000360804
0.000706154
0.000187457
0.000416345
0.00068641
0.000843475
0.00020325
0.000607174
0.000281845
0.000328379
0.000358537
0.00028039
0.000378708
0.000317898
0.000331721
0.000287187
0.000612341
0.000790815
4.84094e-05
0.000586322
0.00107269
0.000449138
0.000304415
0.000572672
0.000207207
0.000445394
0.000459529
0.000660108
0.000733277
0.000494467
0.000510318
0.000783498
0.000429113
0.000479984
0.000254402
0.000666703
0.000366311
0.00016209
0.000808253
0.000590662
0.000280618
0.000245545
0.000274547
0.000646988
0.000205676
0.000936082
0.000490641
0.000135721
0.000512763
0.000193114
0.000471116
0.000334407
0.000278819
0.000724176
0.000470478
0.000589926
8.58061e-05
0.000155926
0.000163953
0.000122872
0.000190327
0.000147172
0.000349376
4.15738e-05
0.000453028
0.00013333
0.000580482
0.000489509
0.000276907
0.000420765
0.000144464
0.000527661
0.000777003
0.00113662
0.000528695
0.000692061
0.000394918
0.000579316
0.000203546
0.000483654
0.000120805
0.000344306
0.000428343
0.000331978
0.000172623
0.000454365