/*--------------------------------*- C++ -*----------------------------------*\
| =========                 |                                                 |
| \\      /  F ield         | OpenFOAM: The Open Source CFD Toolbox           |
|  \\    /   O peration     | Version:  v2012                                 |
|   \\  /    A nd           | Website:  www.openfoam.com                      |
|    \\/     M anipulation  |                                                 |
\*---------------------------------------------------------------------------*/
FoamFile
{
    version     2.0;
    format      ascii;
    class       volScalarField;
    location    "50";
    object      he_filtered;
}
// * * * * * * * * * * * * * * * * * * * * * * * * * * * * * * * * * * * * * //

dimensions      [0 2 -2 0 0 0 0];


internalField   nonuniform List<scalar> 
65536
(
1386.81
1311.26
1297.02
1294.88
1307.84
1336.47
1470.27
1418.48
1378.78
1387.14
1439.01
1584.66
1592.39
1479.06
1571.55
1530.95
1395.64
1378.11
1378.53
1393.6
1513.54
1475.02
1592.6
1566.68
1437.6
1423.79
1488.84
1377.83
1346.89
1333.78
1329.5
1335.28
1351.33
1446.15
1350.59
1333.68
1324.99
1327.09
1338.39
1319.75
1308.37
1298.67
1293.84
1291.06
1290.38
1291.83
1288.49
1282.1
1281.02
1271.56
1265.18
1258.22
1256.37
1254.79
1258.94
1266.75
1281.29
1302.09
1399.89
1304.38
1275.48
1258.94
1249.15
1241.66
1241.45
1247.44
1258.26
1282.59
1375.38
1321.35
1328.09
1460.06
1447.39
1304.47
1278.2
1262.6
1257.15
1257.45
1279.44
1309.68
1448.01
1438.4
1306.61
1284.72
1272.79
1268.24
1260.83
1259.62
1261.99
1271.53
1288.59
1314.94
1470.79
1487.67
1365.93
1408.01
1277.87
1248.09
1231.34
1225.45
1234.66
1282.47
1269.49
1288.09
1362.57
1432.26
1305.06
1279.87
1275.12
1291.38
1353.34
1428.39
1317.25
1314.05
1363.09
1472.41
1434.6
1293.32
1279.35
1290.97
1326
1429.22
1549.47
1492.82
1343.67
1318.39
1313.78
1328.96
1464.42
1446.55
1297.95
1269.45
1255.86
1249.52
1244.21
1245.66
1245.4
1256.04
1323.74
1246.93
1229.48
1221.56
1219.22
1220.82
1223.61
1232.98
1248.22
1270.16
1390.16
1420.86
1283.07
1256.77
1240.22
1226.35
1219.86
1223.23
1237.21
1310.84
1265.72
1274.51
1306.4
1462.41
1475.43
1341.33
1326.01
1313.58
1403.48
1345.62
1430.01
1498.27
1406.62
1477.59
1371.3
1306.27
1276.04
1264.18
1271.43
1367.94
1413.17
1295.89
1285.68
1294.49
1313.93
1420.43
1376.47
1497.19
1481.73
1325.8
1288.43
1258.13
1240.19
1233.71
1226.38
1228.03
1236.62
1254.96
1283.61
1430.19
1431.32
1291.73
1269.11
1267.93
1273.61
1297.02
1443.99
1448.69
1309.48
1285.86
1284.5
1303.2
1440.54
1522.46
1517.04
1469.8
1318.58
1294.77
1284.28
1286.23
1364.19
1271.01
1251.72
1233.78
1219.48
1213.06
1216.98
1320.35
1343.62
1208.7
1188.59
1185.22
1210.12
1224.93
1358.85
1375.09
1242.33
1219.8
1207.34
1202.94
1208.87
1215.63
1239.97
1331.63
1296.84
1315.38
1483.13
1545.85
1481.22
1316.11
1294.54
1300.62
1441.51
1446.5
1312.37
1304.45
1364.85
1454.17
1370.48
1291.45
1267.88
1270.46
1291.37
1376.76
1266.85
1251.05
1250.41
1303.43
1259.88
1270.36
1395.63
1414.52
1302.42
1311.97
1387.24
1444.64
1334.66
1379.73
1270.79
1267.72
1290.86
1445.91
1471.01
1362.9
1436.7
1463.28
1335.11
1321.03
1336.24
1479.59
1479.69
1352.51
1396.77
1268
1241.58
1223.92
1213.35
1208.86
1202.39
1199.49
1195.26
1196.73
1195.55
1199.35
1212.73
1296.91
1209.04
1198.22
1193.89
1194.15
1194.42
1197.97
1198.83
1211.27
1223.86
1245.46
1351.26
1266.98
1266.4
1289.75
1427.93
1414.27
1282.1
1267.66
1270.76
1361.4
1268.87
1234.31
1225
1241.95
1301.03
1416.59
1447.86
1328.31
1283.62
1276.91
1288.46
1305.28
1350.02
1425.73
1316.62
1287.53
1262.07
1243.01
1235.92
1245.99
1363.39
1373.83
1235.7
1214.58
1207.04
1212.28
1219.66
1239.32
1339.32
1246.34
1238.31
1234.63
1243.33
1266.58
1404.2
1481.79
1420.77
1280.17
1260.7
1254.93
1254.53
1266.17
1252.4
1245.18
1247.57
1258.42
1283.05
1389.77
1429.86
1298.54
1276.9
1269.26
1273.05
1280.51
1296.45
1324.76
1468.82
1460.66
1307.57
1273.95
1255.15
1248.36
1253.14
1293.15
1241.7
1229.54
1238.6
1347.89
1381.29
1259.26
1241.84
1236.28
1233.39
1233.66
1236.04
1236.65
1237.27
1236.15
1239.35
1242.66
1251.86
1267.49
1297.44
1403.25
1492.77
1437.82
1288.11
1264
1255.93
1258.66
1269.51
1305.35
1258.22
1239.17
1230.26
1228.91
1265.34
1231.41
1230.57
1238.84
1252.07
1274.79
1309.69
1467.44
1493.11
1368.94
1408.82
1302.19
1286.58
1276.81
1274.52
1284.11
1293.78
1382.9
1281.46
1258.33
1240.5
1226.08
1215.13
1210.6
1212.51
1216.38
1223.04
1233.05
1240.63
1244.88
1251.38
1262.66
1287.08
1341.26
1436.8
1361.61
1451.19
1389.21
1323.11
1313.44
1381.09
1341.61
1453.71
1428.95
1277.05
1246.68
1230.55
1226.12
1229.37
1243.8
1270.31
1389.35
1331.93
1415.85
1319.96
1293.58
1279.45
1279.74
1292.79
1324.08
1385.83
1520.61
1486.41
1317.14
1280.69
1249.75
1238.82
1243.96
1268.44
1307.09
1435.83
1592.46
1644.69
1594.77
1426.3
1348.99
1309.72
1291.6
1295.25
1378.76
1344.57
1471.55
1458.1
1314.95
1286.15
1267.98
1253.23
1245.52
1241.53
1242.3
1244.51
1249.69
1110.1
1118.69
1112.23
1122.85
1128.81
1134.91
1112.61
1155.36
1171.81
1174.93
1190.82
1195.84
1199.14
1214.81
1167.87
1124.6
1175.47
1185.08
1189.39
1194
1165.71
1209.42
1192.45
1153.79
1206.59
1197.29
1158.53
1162.04
1163.11
1150.42
1150.68
1151.07
1147.32
1126.62
1143.31
1134.59
1139.38
1143.16
1135.38
1145.45
1137.52
1134.28
1129.03
1128.32
1126.95
1120.11
1118.43
1116.34
1097.54
1099.9
1096.1
1092.54
1086.9
1093.12
1099.61
1105.12
1106.47
1103.59
1088.23
1093.16
1099.03
1094.04
1089.78
1091
1082.91
1077.06
1081.08
1083.14
1090.42
1110.9
1118.95
1098.83
1073.03
1104.6
1097.82
1094.43
1087.78
1092.99
1098.62
1110.02
1072.07
1057.03
1104.16
1104.34
1100.54
1092.8
1095.79
1092.25
1091.06
1089.58
1100.04
1117.16
1100.56
1113.32
1121.2
1067.98
1080.19
1072.77
1064.68
1059.09
1054.25
1053.27
1064.42
1082.56
1100.8
1085.85
1105.63
1100.06
1095.53
1098.84
1095.5
1076.99
1100.32
1103.91
1088.41
1037.29
1024.6
1079.04
1091.8
1099.12
1115.97
1138.87
1137.02
1107.72
1140.43
1131.39
1124.34
1129.02
1103.23
1080.81
1104.69
1098.12
1083.43
1071.91
1075.99
1069.52
1076.8
1066.37
1021.4
1050.45
1051.5
1052.49
1055.9
1058.15
1066.09
1071.99
1073.94
1067.9
1015.51
1054.93
1086.81
1071.23
1054.6
1052.79
1052.15
1051.37
1054.53
1045.89
1072.38
1088.76
1104.16
1091.83
1114.04
1130.98
1109.53
1093.12
1045.17
1101.53
1097.76
1131.56
1152.36
1104.61
1116.8
1099.21
1088.9
1080.95
1066.95
1002.46
1025.54
1079.54
1090.26
1093.18
1094.19
1052.91
1116.48
1112.55
1097.55
1111.35
1097.33
1081.97
1071
1052.11
1058.37
1062.9
1069.34
1077.4
1087.52
1069.69
1060.52
1089.54
1085.88
1071.99
1079.37
1089.93
1059.34
1085.71
1104.38
1102.46
1095.8
1094.01
1054.18
1040.61
1036.41
1068.06
1112.61
1112.77
1104.16
1089.1
1029.18
1074.35
1075.34
1066.63
1056.53
1031.91
1014.91
954.713
985.341
1015.6
1005.97
1003.36
1003.79
1010.17
969.15
1006.2
1045.92
1046.85
1045.38
1041.22
1029.86
1047.23
1049.78
1054.87
1078.32
1094.42
1077.06
1102.78
1069.34
1095.97
1088.09
1086.58
1057.35
1077.64
1100.65
1082.84
1026.23
1086.39
1098.67
1089.99
1085.76
1079.85
1077.36
1059.81
1083.77
1071.17
1059.68
1016.99
1058.49
1061.24
1009.15
1037.17
1093.98
1104.16
1097.73
1098.82
1093.52
1032.11
1070.5
1076.87
1085.83
1062.12
1060.22
1105.89
1057.55
1100.88
1124.88
1122.71
1126.21
1102.72
1104.82
1106.3
1051.22
1067.38
1062.29
1058.97
1058.28
1047
1048.02
1038.77
1038.71
1026.93
1032.45
1035.7
1028.95
996.489
1026.31
1025.01
1029.51
1028.51
1028.05
1020.7
1027.82
1025.76
1042.51
1052.59
1030.21
1064.02
1069.93
1070.87
1055.96
1031.95
1077.39
1074.89
1067.05
1026.61
1029.08
1030.56
1040.94
1039.8
1031.57
980.337
1049.5
1072.09
1078.9
1061.25
1062.17
1091.12
1108.38
1079.94
1119.1
1108.52
1090.5
1071.66
1054.57
1042.28
1007.3
1002.61
1038.01
1038.4
1037.15
1037.89
1050.32
1050.1
1025.3
1056.27
1048.68
1056.9
1062.25
1054.79
1012.71
1056.69
1013.89
1064.16
1067.9
1060.11
1072.92
1073.27
1080.61
1084.2
1080.16
1080.63
1084.33
1078.58
1080.84
1103.02
1102.68
1101.92
1103.66
1111.24
1117.34
1122.33
1094.38
1082.37
1096.21
1091.91
1080.79
1074.49
1069.45
1058.34
1052.77
1046.38
1037.26
986.696
1000.46
1055.28
1068.41
1069.97
1072.15
1076.11
1077.82
1076.91
1075.56
1082.02
1080.82
1082.43
1087.13
1092.93
1095.27
1074.67
1095.86
1049.84
1084.26
1081.78
1083.35
1087.74
1091.5
1076.08
1069.03
1057.87
1040.49
1036.11
1007.67
1049.74
1065.28
1075.73
1087.38
1099.4
1106.63
1088.94
1102.94
1124.99
1072.2
1102.26
1102.18
1102.2
1100.57
1088.93
1094.42
1070.42
1085.06
1080.95
1065.91
1057.89
1055.88
1058.87
1054.18
1056.98
1058.51
1057.87
1068.51
1074.51
1077.64
1088.01
1099.78
1099.37
1057.95
1098.29
1059.81
1106.32
1110.36
1104.42
1069.61
1105.59
1087.4
1053.96
1079.08
1074.46
1066.44
1058.62
1058.85
1059.19
1060.12
1054.51
1088.86
1065.09
1104.18
1109.82
1111.26
1109.86
1116.75
1129.74
1143.74
1129.51
1096.43
1103.64
1076.69
1075.21
1075.26
1076.01
1073.49
1086.16
1098.59
1150.73
1170.95
1178.39
1175.19
1145.09
1122.1
1104.27
1095.22
1067.19
1111.13
1089.45
1068.62
1103.19
1104.15
1097.15
1093.19
1088.38
1083.38
1076.58
1071.25
1060.36
744.217
773.766
790.503
791.741
792.002
775.163
702.166
766.032
786.191
783.224
759.157
746.077
738.103
786.637
720.936
712.489
810.047
836.104
838.852
822.496
781.712
819.958
781.955
746.403
809.322
811.372
728.958
794.188
802.786
817.465
810.588
799.893
786.271
724.583
777.526
790.472
797.58
799.819
808.137
798.224
807.675
806.734
812.733
809.883
801.104
796.482
789.547
777.989
779.983
776.856
773.4
770.019
760.333
776.875
782.683
778.584
768.078
755.814
719.309
755.137
765.027
782.34
778.311
762.906
762.998
757.494
743.257
728.846
687.986
737.766
747.887
700.951
689.74
753.787
772.252
769.983
751.316
703.245
746.093
758.408
727.733
687.649
750.333
771.317
775.169
773.399
769.217
772.931
772.695
772.752
766.137
744.203
690.539
694.779
733.828
685.184
739.464
743.088
740.517
731.38
712.173
679.079
713.633
717.757
688.627
696.53
748.428
758.734
761.585
743.547
716.56
667.52
728.843
721.157
696.731
604.132
606.606
703.531
734.163
750.533
744.071
706.75
718.044
730.968
772.255
785.64
786.475
776.381
719.011
701.205
751.804
756.963
762.877
765.081
753.681
758.353
748.842
748.544
715.994
722.921
714.116
733.011
746.441
753.309
750.452
749.3
748.486
734.317
651.999
685.8
722.306
730.589
727.586
725.114
725.125
721.347
704.781
674.085
717.468
738.508
745.669
712.565
708.756
724.388
725.851
711.237
645.417
708.046
674.549
721.445
756.903
696.543
731.69
732.203
742.079
741.266
713.928
618.56
621.277
719.675
744.24
746.784
722.165
654.141
709.813
678.112
668.518
742.649
751.422
746.018
728.951
728.8
731.698
738.668
740.833
742.441
734.202
673.095
672.469
732.196
736.766
743.698
733.617
708.028
644.941
688.847
754.418
760.636
755.645
730.675
641.654
622.688
679.671
687.086
762.565
773.243
771.625
740.744
659.326
729.071
747.764
746.156
720.389
705.447
658.038
566.839
608.331
663.306
674.599
658.435
631.193
638.077
583.852
599.159
692.905
720.39
724.16
718.001
715.658
701.05
704.959
666.758
707.183
704.965
635.88
638.12
630.591
699.286
701.785
678.01
622.649
667.966
712.677
703.15
613.385
657.411
692.753
728.537
733.199
729.833
717.98
685.557
718.36
733.341
717.295
649.329
704.037
706.821
641.337
672.064
722.361
731.75
718.884
681.268
701.699
640.09
704.861
720.522
709.157
645.629
630.702
697.803
691.276
699.593
748.134
764.526
759.342
707.946
675.615
707.533
643.786
707.397
721.758
729.079
728.147
742.323
735.324
739.232
722.649
718.513
718.813
712.92
702.132
648.714
689.896
706.626
713.623
718.369
712.167
710.75
702.025
701.223
698.079
684.369
639.624
703.072
713.371
705.302
664.982
652.228
720.262
732.688
710.287
623.889
632.499
687.822
686.897
667.223
614.122
559.693
633.642
699.252
702.079
701.209
660.064
711.819
721.257
738.851
767.24
775.707
763.491
743.174
719.833
692.824
607.323
598.419
676.483
696.263
708.298
720.17
717.76
719.612
665.954
718.796
720.313
723.899
707.828
684.051
590.922
609.588
614.259
697.314
716.79
725.635
728.604
741.277
751.352
755.226
765.67
760.399
735.815
660.099
677.832
743.14
760.881
780.125
779.559
784.356
784.352
766.739
699.843
678.015
735.334
741.089
754.279
749.381
731.488
686.098
710.803
704.075
669.119
576.5
577.357
690.961
725.242
746.344
755.252
758.099
756.248
768.087
770.454
756.828
751.886
763.169
760.877
753.12
736.039
689.112
640.153
669.756
717.731
742.268
756.6
757.827
747.271
736.59
734.136
722.393
721.741
703.429
649.43
719.972
747.754
761.775
770.043
764.373
756.52
691.839
713.361
743.752
705.405
738.496
762.872
768.262
756.06
749.682
735.788
688.357
743.459
747.094
755.837
749.472
740.15
731.106
741.793
741.732
742.345
746.184
745.111
753.325
761.362
756.299
734.629
704.934
638.697
691.519
647.046
705.444
751.667
751.447
693.524
725.554
665.646
659.542
725.169
736.964
740.36
739.717
732.676
726.788
712.063
659.162
702.16
672.437
746.829
774.204
783.72
785.27
774.825
761.137
748.554
706.095
663.77
725.133
731.011
722.063
716.134
713.95
716.571
702.979
658.751
646.842
647.031
692.381
720.095
766.828
775.497
767.038
741.755
679.569
719.536
689.321
660.306
747.366
765.643
768.29
763.808
753.391
752.229
755.732
748.942
740.741
286.936
334.872
319.275
353.646
338.761
326.075
257.463
309.079
330.578
329.478
284.212
274.73
264.172
326.85
267.076
265.39
358.576
397.469
402.127
379.759
320.667
330.743
294.649
330.587
373.117
354.627
258.527
310.828
354.503
358.183
360.74
336.123
300.4
261.725
312.036
297.982
341.657
354.156
329.647
365.488
373.626
383.988
387.968
383.345
370.098
340.69
354.309
349.268
295.006
347.061
361.772
349.267
301.228
358.168
378.33
371.064
336.432
263.493
240.084
263.7
333.943
348.625
360.384
361.165
340.615
309.001
275.098
250.165
213.396
285.097
296.551
263.135
247.44
313.046
341.18
353.819
334.837
253.462
316.336
321.224
276.03
293.468
321.291
335.599
341.41
331.003
348.54
346.66
337.298
311.075
307.344
295.27
214.668
210.708
272.88
251.319
292.574
315.835
323.237
313.38
288.55
217.865
256.273
251.477
189.851
214.955
298.877
330.639
328.429
309.167
259.313
211.11
264.17
277.506
239.074
210.467
165.894
261.079
295.574
286.806
275.112
198.721
205.454
257.114
325.875
339.208
327.693
325.444
285.186
260.11
317.898
333.077
320.851
285.19
314.907
294.675
328.099
314.688
288.472
268.023
240.473
304.002
331.437
327.965
313.341
326.608
326.779
305.347
282.327
237.896
261.371
267.869
241.911
279.012
286.385
293.646
287.118
242.947
281.958
304.008
297.683
248.752
244.314
271.221
227.571
242.842
197.596
278.359
286.707
288.387
313.35
266.449
244.429
227.004
294.355
318.071
310.535
271.197
203.726
277.478
303.289
302.7
281.378
215.982
246.763
188.578
203.585
275.68
298.52
282.855
282.309
246.381
298.479
314.661
309.515
312.419
299.344
229.526
236.734
295.706
299.313
265.344
278.41
272.792
210.269
240.962
295.077
326.768
323.524
297.703
228.663
209.389
217.708
253.892
328.385
359.327
354.753
326.335
236.535
307.194
333.016
330.196
317.163
269.809
216.646
127.923
175.151
242.02
248.683
240.221
211.488
225.908
200.704
181.806
277.697
308.362
313.167
296.93
245.356
273.391
252.314
209.612
254.354
247.484
151.733
123.583
156.121
240.358
239.932
178.011
168.983
198.276
274.572
286.407
285.909
248.744
231.779
284.079
299.578
281.518
232.749
216.921
290.127
310.137
315.854
299.944
307.994
296.474
253.948
253.342
288.992
284.46
224.843
197.024
242.198
195.11
257.756
259.444
268.807
205.978
208.09
240.128
187.455
229.984
288.534
306.58
298.613
238.965
202.832
245.963
181.192
238.522
278.938
307.615
323.365
320.814
329.451
317.964
313.791
260.359
293.317
300.766
283.35
240.798
275.519
272.145
293.831
299.956
290.355
257.459
263.547
226.389
266.153
262.589
198.579
265.951
269.051
207.198
208.38
238.736
274.19
292.326
279.898
199.68
234.066
260.512
275.413
242.687
136.702
110.421
166.235
196.751
243.782
219.782
277.758
282.319
243.823
276.669
335.976
337.439
326.284
290.023
272.594
244.087
161.43
170.661
256.61
271.721
252.657
273.068
287.535
288.975
284.126
278.45
233.278
283.43
292.726
252.82
143.335
164.94
203.496
257.697
265.074
237.617
286.02
293.697
321.623
345.073
341.71
327.666
289.901
187.549
213.864
305.858
340.066
342.012
359.502
355.216
340.064
315.257
229.448
218.198
270.445
315.355
325.329
322.317
302.529
251.73
286.111
282.824
255.746
172.367
168.262
272.627
301.658
316.913
315.8
334.482
356.499
354.144
346.657
349.961
347.74
339.909
340.526
324.792
283.06
194.546
140.083
172.809
269.007
293.049
319.89
334.993
323.22
266.921
248.645
267.064
248.276
283.999
291.047
322.042
342.051
343.363
338.815
337.788
305.794
231.614
241.561
296.734
262.668
269.867
328.408
337.594
325.683
267.494
290.143
246.849
296.265
319.517
312.62
305.844
297.988
319.306
325.539
327.939
315.25
287.538
301.848
321.752
322.596
315.761
305.71
264.629
199.503
248.769
213.92
231.71
300.786
322.994
291.708
291.51
211.455
226.992
299.054
320.837
325.504
320.409
307.304
268.893
227.407
193.808
246.245
229.432
299.134
336.192
356.111
352.658
332.506
285.961
241.148
193.52
202.533
254.891
227.658
272.867
290.136
282.584
250.199
193.058
185.503
138.528
140.405
202.906
208.177
309.812
330.24
307.354
300.409
257.462
282.413
231.478
203.664
295.078
336.893
342.672
335.982
331.003
321.583
325.728
311.666
251.625
-219.569
-144.675
-180.303
-132.901
-186.425
-166.99
-238.423
-217.01
-214.497
-183.982
-235.91
-228.465
-183.327
-165.035
-199.557
-154.494
-109.179
-97.4084
-112.078
-145.174
-212.381
-181.615
-231.131
-184.721
-175.772
-150.869
-154.506
-237.575
-202.746
-157.178
-152.941
-196.462
-175.4
-199.53
-163.001
-215.863
-165.584
-168.525
-225.39
-191.788
-139.179
-147.923
-108.147
-104.243
-132.889
-207.642
-158.588
-188.971
-230.829
-152.675
-137.331
-133.035
-166.664
-110.17
-105.001
-136.54
-164.524
-257.515
-263.041
-254.922
-158.444
-118.899
-119.517
-166.578
-153.836
-184.998
-277.24
-304.784
-265.626
-213.293
-202.235
-251.799
-255.937
-175.799
-140.526
-120.443
-126.213
-124.97
-162.541
-175.53
-250.756
-245.081
-222.656
-163.718
-161.73
-207.113
-162.404
-147.844
-156.785
-211.725
-195.55
-246.628
-277.172
-268.326
-213.886
-223.88
-191.856
-196.224
-167.259
-171.977
-201.054
-271.626
-220.321
-224.672
-294.114
-282.662
-195.857
-178.944
-162.647
-179.52
-224.834
-269.396
-221.361
-260.042
-288.969
-267.443
-313.78
-236.968
-215.733
-245.576
-213.978
-290.977
-308.59
-256.427
-174.458
-159.413
-195.307
-173.352
-219.625
-218.955
-171.686
-173.652
-183.476
-242.654
-184.013
-232.539
-179.042
-182.809
-238.138
-252.525
-239.38
-166.409
-145.344
-151.96
-215.734
-160.445
-154.143
-179.248
-253.953
-298.625
-297.991
-229.938
-273.31
-227.363
-242.931
-210.003
-240.876
-261.807
-249.046
-207.235
-220.119
-272.883
-262.099
-280.28
-302.404
-239.485
-279.5
-207.37
-191.927
-213.125
-172.708
-202.192
-255.655
-278.21
-205.029
-169.113
-179.417
-239.469
-275.903
-198.254
-187.991
-190.524
-219.468
-250.015
-248.487
-308.301
-290.15
-209.312
-206.005
-259.617
-237.368
-287.426
-205.204
-192.705
-234.374
-200.446
-188.365
-236.718
-217.964
-179.617
-227.141
-262.854
-231.314
-271.75
-301.373
-272.407
-189.956
-170.172
-163.574
-184.152
-255.687
-242.246
-290.764
-222.857
-152.286
-156.688
-132.644
-156.949
-226.224
-172.427
-145.214
-149.641
-205.081
-212.934
-304.942
-336.481
-297.648
-228.709
-217.953
-260.305
-253.918
-277.083
-248.266
-267.199
-196.909
-164.426
-164.335
-187.215
-277.761
-262.056
-235.516
-273.538
-252.109
-256.471
-342.347
-364.707
-334.802
-263.671
-278.758
-255.06
-297.854
-294.76
-248.847
-223.252
-254.056
-263.534
-243.622
-201.091
-197.558
-208.868
-269.99
-290.904
-252.418
-183.531
-173.302
-191.369
-199.817
-205.23
-267.581
-252.122
-246.527
-232.865
-290.22
-279.393
-230.018
-271.127
-233.176
-278.981
-238.056
-283.558
-312.476
-292.63
-335.159
-315.742
-278.252
-215.036
-204.537
-260.689
-239.427
-232.793
-309.4
-281.619
-207.741
-180.333
-211.499
-179.175
-174.777
-159.059
-175.15
-230.067
-172.495
-173.51
-180.498
-227.863
-211.639
-237.548
-182.513
-180.416
-200.491
-263.429
-226.813
-277.845
-236.249
-267.514
-304.278
-225.056
-220.903
-289.14
-259.192
-232.135
-255.376
-188.579
-189.846
-256.967
-214.838
-196.588
-219.731
-235.806
-310.043
-280.483
-333.965
-342.205
-289.429
-302.316
-241.007
-209.425
-231.69
-242.119
-176.678
-149.559
-169.227
-242.496
-242.407
-226.108
-311.57
-298.485
-231.895
-214.579
-208.043
-205.885
-246.122
-205.143
-212.236
-201.726
-272.43
-211.773
-235.432
-240.972
-327.807
-338.123
-332.063
-243.368
-239.207
-287.915
-237.896
-233.233
-178.965
-151.7
-132.468
-143.241
-184.044
-286.062
-258.359
-189.517
-187.476
-153.395
-170.216
-146.722
-140.852
-169.698
-260.756
-282.197
-268.965
-219.527
-167.365
-163.058
-173.364
-208.203
-187.025
-197.333
-244.626
-273.178
-217.335
-203.225
-224.475
-176.862
-209.752
-166.6
-178.412
-142.145
-145.546
-193.476
-211.154
-174.755
-169.073
-182.589
-223.777
-318.792
-319.737
-324.889
-244.796
-227.668
-162.525
-148.873
-180.478
-261.625
-299.839
-244.647
-268.142
-187.768
-154.727
-140.637
-149.379
-151.369
-141.422
-154.214
-177.153
-265.789
-264.698
-184.317
-168.713
-147.868
-142.438
-143.468
-184.645
-247.479
-203.6
-229.74
-191.349
-203.482
-187.791
-188.782
-242.749
-206.598
-167.731
-168.502
-191.775
-247.304
-231.138
-176.83
-163.35
-173.797
-232.003
-261.346
-293.459
-231.303
-236.744
-242.755
-159.321
-135.617
-149.614
-175.153
-248.216
-238.418
-194.801
-187.493
-174.56
-191.517
-196.747
-223.823
-308.527
-321.137
-250.756
-274.61
-195.494
-146.345
-124.306
-129.091
-168.556
-259.448
-277.726
-318.681
-292.918
-241.838
-301.169
-279.287
-262.999
-267.58
-262.874
-324.754
-289.993
-294.079
-349.673
-283.069
-197.276
-165.873
-164.416
-223.597
-197.757
-245.172
-222.635
-270.094
-283.288
-187.69
-167.212
-178.689
-198.866
-225.693
-241.539
-181.604
-178.585
-254.668
-705.681
-620.181
-583.156
-599.561
-666.179
-667.424
-730.126
-712.929
-729.472
-676.658
-736.539
-732.909
-680.9
-659.672
-704.851
-705.65
-676.308
-637.782
-649.184
-712.574
-763.935
-769.834
-777.447
-756.828
-753.086
-697.588
-727.103
-786.942
-781.685
-740.939
-696.224
-712.159
-667.917
-671.33
-684.314
-668.518
-711.592
-689.35
-744.333
-750.683
-677.169
-687.72
-642.739
-662.342
-684.912
-730.253
-674.909
-698.449
-636.195
-658.371
-654.219
-616.046
-598.835
-595.616
-598.739
-666.71
-648.594
-718.18
-721.352
-663.388
-659.71
-683.892
-660.99
-724.122
-697.459
-743.918
-794.961
-824.606
-800.414
-743.39
-766.59
-808.581
-797.969
-734.281
-710.183
-650.195
-630.399
-649.246
-704.723
-694.593
-765.687
-793.522
-764.18
-701.149
-705.815
-740.575
-703.891
-708.273
-679.863
-678.308
-736.152
-775.75
-756.273
-758.006
-716.677
-757.483
-753.662
-717.68
-683.857
-699.872
-706.725
-793.091
-774.389
-768.187
-800.326
-771.79
-707.409
-705.316
-695.326
-751.055
-765.097
-737.663
-772.85
-808.594
-799.34
-760.328
-798.126
-762.391
-713.16
-737.759
-724.367
-770.798
-713.223
-722.086
-677.504
-670.902
-682.152
-705.326
-753.492
-737.174
-704.216
-727.8
-730.929
-670.619
-662.346
-650.022
-671.351
-738.001
-755.434
-691.152
-667.756
-673.481
-657.367
-681.343
-729.213
-702.912
-700.428
-753.891
-806.325
-798.741
-810.079
-743.232
-714.713
-753.075
-751.35
-728.116
-790.741
-782.021
-766.858
-725.777
-785.596
-803.162
-795.105
-820.582
-792.488
-730.765
-756.522
-700.002
-707.703
-729.576
-689.355
-709.47
-744.335
-722.494
-740.016
-683.665
-687.506
-755.339
-709.307
-750.404
-757.134
-745.278
-782.352
-804.051
-767.75
-826.715
-816.25
-763.629
-719.713
-757.132
-763.268
-784.189
-714.641
-707.865
-780.649
-763.484
-711.626
-738.73
-703.741
-691.873
-737.833
-732.73
-750.603
-825.834
-823.998
-814.175
-770.088
-710.574
-709.417
-707.321
-762.769
-788.744
-807.108
-741.701
-695.279
-718.064
-647.34
-638.736
-651.757
-705.742
-671.839
-683.252
-752.274
-749.725
-796.216
-750.683
-776.494
-725.324
-735.771
-759.418
-730.751
-770.09
-746.049
-740.809
-688.626
-679.152
-709.822
-702.024
-728.526
-814.513
-790.301
-802.507
-805.444
-763.384
-819.298
-794.301
-805.092
-763.198
-790.534
-740.987
-767.265
-786.308
-790.811
-742.423
-812.355
-804.936
-786.832
-733.305
-738.103
-709.978
-746.227
-786.161
-790.066
-703.904
-693.288
-747.539
-750.068
-717.956
-771.448
-747.964
-766.981
-717.215
-750.895
-764.283
-720.7
-729.149
-743.645
-768.845
-723.775
-775.495
-826.978
-820.688
-779.384
-823.71
-829.576
-748.993
-741.423
-775.55
-773.06
-738.24
-792.27
-776.097
-709.661
-704.777
-765.558
-747.34
-733.48
-706.946
-655.451
-653.154
-704.92
-717.875
-703.364
-728.333
-725.111
-686.588
-701.829
-690.929
-708.973
-752.495
-711.135
-696.24
-735.538
-805.306
-813.042
-724.889
-700.999
-703.433
-756.7
-727.729
-760.679
-714.435
-692.951
-738.477
-710.169
-750.834
-767.633
-718.974
-727.447
-776.808
-826.857
-795.874
-779.343
-708.658
-744.163
-684.058
-705.474
-747.387
-695.966
-708.949
-692.705
-731.001
-711.98
-728.779
-784.501
-763.577
-715.919
-743.109
-721.638
-762.65
-797.556
-771.879
-733.583
-750.319
-698.523
-724.396
-778.05
-727.421
-739.606
-830.718
-847.955
-768.241
-779.719
-756.273
-751.08
-754.335
-704.802
-682.348
-684.087
-695.093
-707.295
-777.832
-748.605
-702.265
-753.504
-723.875
-757.287
-702
-717.097
-715.925
-739.521
-771.801
-724.01
-755.193
-698.413
-705.004
-709.529
-726.726
-699.558
-714.326
-774.912
-762.772
-737.381
-699.036
-737.759
-687.583
-713.135
-711.343
-743.508
-685.86
-702.979
-778.801
-795.045
-754.517
-711.834
-731.545
-784.511
-809.005
-803.632
-800.526
-757.487
-730.167
-686.368
-657.702
-674.846
-741.458
-782.767
-765.619
-710.252
-702.634
-697.399
-679.487
-680.255
-725.872
-711.307
-698.566
-725.827
-771.774
-760.448
-705.534
-713.896
-687.788
-674.01
-687.057
-727.53
-688.421
-701.486
-747.579
-759.556
-794.654
-786.27
-763.909
-768.442
-755.915
-693.119
-690.67
-721.48
-716.036
-740.386
-714.299
-742.568
-746.585
-798.956
-791.098
-779.389
-714.267
-719.343
-754.276
-689.378
-662.766
-679.537
-686.59
-756.099
-746.014
-698.213
-735.76
-710.136
-755.042
-722.796
-776.264
-819.83
-822.86
-754.084
-799.415
-753.647
-687.107
-662.674
-676.476
-697.253
-783.051
-768.223
-805.824
-788.681
-725.035
-709.519
-776.192
-800.387
-808.432
-802.052
-813.192
-781.941
-818.289
-866.587
-822.01
-763.521
-694.028
-680.16
-720.739
-702.309
-747.43
-715.706
-746.507
-779.511
-740.201
-705.161
-758.603
-798.934
-827.244
-812.431
-712.011
-683.665
-648.437
-1207.9
-1116.28
-1076.46
-1086.81
-1112.6
-1174.09
-1217.78
-1209.62
-1162.08
-1187.37
-1211.11
-1212.79
-1227.93
-1222.68
-1235.9
-1255.35
-1242.73
-1179.77
-1212.86
-1234.77
-1282.88
-1325.09
-1312.02
-1267.61
-1265.61
-1235.64
-1288.96
-1290.33
-1240.9
-1281.65
-1256.82
-1194.48
-1176.02
-1176.33
-1242.96
-1197.2
-1261.88
-1231.15
-1278.62
-1202.97
-1196.83
-1155.16
-1162.37
-1226.48
-1211.21
-1233.71
-1180.22
-1165.58
-1156.55
-1198.4
-1178.4
-1142.54
-1110.34
-1136.04
-1140.65
-1114.88
-1152.52
-1151.02
-1195.93
-1154.06
-1218.04
-1252.88
-1181.93
-1181.47
-1242.59
-1267.95
-1232.1
-1297.07
-1288.47
-1258.81
-1297.09
-1324.32
-1331.03
-1304.04
-1273.86
-1191.98
-1197.6
-1223.27
-1225.71
-1213.02
-1278.73
-1279.57
-1222.23
-1207.05
-1261.18
-1282.17
-1267.51
-1265.74
-1220.35
-1183.38
-1235.37
-1196.53
-1248.81
-1258.7
-1255
-1260.89
-1272.27
-1211.88
-1179.2
-1209.78
-1232.01
-1311.15
-1310.98
-1299.54
-1237.61
-1261.41
-1202.76
-1205.26
-1225.43
-1302.28
-1307.51
-1273.83
-1306.82
-1262.03
-1285.64
-1240.88
-1215.07
-1246.67
-1232.36
-1200.02
-1201.42
-1186.43
-1218.16
-1245.62
-1230.36
-1214.17
-1215.05
-1255.71
-1266.1
-1264.26
-1220.99
-1240.95
-1277.42
-1210.8
-1225.15
-1234.91
-1242.66
-1275.41
-1252.11
-1206.09
-1189.49
-1239.33
-1219.47
-1229.69
-1186.94
-1198.47
-1237.38
-1275.36
-1229.42
-1264.73
-1220.46
-1247.89
-1209.35
-1251.39
-1220.48
-1208.09
-1255.62
-1258.41
-1211.77
-1223.28
-1292.42
-1312.32
-1281.08
-1208.18
-1181.67
-1179.41
-1173.33
-1208.39
-1249.47
-1260.59
-1236.29
-1241.4
-1279.7
-1277.15
-1268.67
-1213.56
-1229.44
-1212.05
-1245.08
-1317.3
-1318.04
-1288.09
-1305.35
-1315.99
-1282.91
-1333.1
-1340.73
-1316.11
-1239.98
-1201.56
-1218.67
-1270.6
-1223.21
-1239.72
-1286.14
-1276.88
-1243.88
-1260.79
-1246.75
-1189.06
-1190.61
-1208.58
-1261.84
-1279.76
-1329.76
-1336.75
-1351.28
-1272.78
-1286.84
-1249.19
-1274.74
-1342.47
-1350.38
-1290.77
-1215.56
-1223.63
-1189.04
-1217.02
-1238.47
-1262.79
-1203.32
-1200.08
-1208.66
-1248.66
-1213.83
-1269.35
-1291.76
-1253.98
-1275.27
-1205.63
-1185.9
-1184.55
-1227.12
-1235.22
-1226.66
-1211.99
-1252.34
-1202.61
-1213.37
-1315.88
-1329.02
-1298.34
-1306.82
-1275.61
-1312.13
-1306.41
-1307.84
-1283.86
-1233.66
-1262.47
-1300.88
-1295.12
-1242.75
-1248.86
-1213.01
-1245.15
-1300.61
-1281.48
-1231.95
-1230.22
-1229.38
-1279.39
-1223.56
-1222.18
-1228.51
-1268.96
-1233.05
-1244.93
-1199.34
-1228.51
-1202.34
-1232.56
-1234.22
-1238.46
-1216.3
-1254.74
-1213.58
-1194.1
-1251.64
-1274.09
-1280.08
-1225.97
-1229.24
-1295.26
-1318.27
-1287.55
-1299.64
-1305.25
-1305.53
-1235.72
-1208.86
-1261.12
-1213.28
-1239.56
-1192.58
-1252.5
-1246.66
-1254.57
-1205.23
-1169.78
-1255.41
-1258.06
-1217.43
-1227.33
-1226.34
-1236.21
-1254.34
-1238.08
-1249.71
-1272.51
-1211.32
-1192.19
-1266.58
-1282.91
-1316.36
-1244.98
-1234.69
-1215.17
-1277.05
-1263.53
-1225.97
-1247.53
-1190.62
-1180.4
-1203.35
-1282.39
-1236.74
-1272.5
-1291.64
-1324.02
-1304.29
-1236.1
-1189.91
-1155.27
-1154.87
-1196.47
-1214.42
-1280.82
-1271.75
-1284.92
-1221.41
-1181.63
-1179.38
-1228.9
-1186.38
-1216.17
-1249.35
-1256.14
-1227.85
-1284.3
-1251.78
-1304.95
-1298.44
-1327.99
-1232.35
-1260.54
-1229.37
-1256.54
-1285.33
-1309.82
-1248.14
-1287.91
-1314.69
-1288.23
-1308.05
-1303.63
-1268.63
-1265.65
-1240.05
-1282.04
-1241.79
-1220.11
-1248.2
-1214.1
-1200.07
-1272.72
-1280.67
-1276.8
-1296.5
-1286.37
-1289.89
-1289.21
-1219.95
-1224.23
-1196.57
-1220.7
-1226.75
-1225.27
-1234.49
-1250.08
-1214.48
-1278.46
-1286.49
-1236.26
-1174.76
-1173.29
-1187.15
-1222.67
-1224.73
-1205.93
-1249.12
-1256.9
-1270.37
-1288.94
-1281.13
-1310.96
-1331.63
-1330.73
-1291.56
-1292.9
-1229.32
-1222.4
-1228.48
-1202.02
-1236.53
-1228.49
-1222.21
-1263.66
-1223.79
-1263.61
-1281.98
-1244.1
-1268.34
-1296.35
-1291.33
-1262.84
-1293.15
-1268.24
-1280.32
-1248.87
-1297.31
-1278.93
-1239.45
-1227.07
-1265.35
-1216.27