/*--------------------------------*- C++ -*----------------------------------*\
| =========                 |                                                 |
| \\      /  F ield         | OpenFOAM: The Open Source CFD Toolbox           |
|  \\    /   O peration     | Version:  v2012                                 |
|   \\  /    A nd           | Website:  www.openfoam.com                      |
|    \\/     M anipulation  |                                                 |
\*---------------------------------------------------------------------------*/
FoamFile
{
    version     2.0;
    format      ascii;
    class       volScalarField;
    location    "50";
    object      p;
}
// * * * * * * * * * * * * * * * * * * * * * * * * * * * * * * * * * * * * * //

dimensions      [1 -1 -2 0 0 0 0];


internalField   nonuniform List<scalar> 
65536
(
157947
157948
157948
157947
157947
157945
157944
157942
157940
157938
157935
157932
157929
157926
157922
157918
157914
157910
157905
157900
157895
157890
157885
157880
157875
157869
157864
157858
157852
157847
157841
157835
157828
157822
157815
157809
157802
157796
157789
157783
157776
157770
157763
157757
157751
157745
157738
157732
157725
157719
157713
157707
157701
157695
157689
157683
157677
157672
157666
157661
157656
157650
157645
157641
157636
157632
157627
157623
157619
157615
157610
157606
157602
157598
157594
157590
157586
157582
157578
157574
157570
157567
157563
157560
157557
157553
157550
157546
157543
157540
157536
157533
157530
157527
157524
157522
157518
157516
157513
157510
157508
157505
157503
157501
157498
157496
157494
157491
157489
157487
157484
157482
157480
157478
157476
157474
157472
157470
157468
157466
157464
157462
157461
157460
157458
157457
157456
157455
157453
157452
157451
157450
157448
157447
157446
157445
157443
157442
157441
157440
157439
157438
157437
157436
157434
157433
157432
157431
157430
157429
157428
157428
157427
157426
157425
157424
157423
157422
157421
157419
157418
157417
157416
157415
157414
157413
157412
157410
157409
157408
157407
157406
157405
157404
157402
157401
157400
157399
157398
157397
157396
157396
157395
157395
157394
157394
157393
157392
157392
157391
157391
157390
157389
157388
157388
157387
157386
157385
157385
157384
157384
157383
157383
157382
157381
157381
157381
157380
157380
157379
157379
157379
157378
157377
157377
157376
157376
157375
157375
157374
157374
157374
157374
157374
157374
157373
157373
157373
157373
157373
157373
157373
157373
157373
157373
157373
157373
157373
157373
157373
157373
157373
157373
157373
157373
157373
157374
157374
157374
157374
157374
157373
157373
157372
157372
157371
157371
157370
157370
157369
157369
157368
157368
157368
157367
157367
157367
157367
157367
157367
157367
157367
157367
157367
157367
157367
157367
157367
157367
157367
157367
157366
157366
157366
157365
157365
157364
157364
157364
157364
157364
157364
157364
157363
157363
157363
157363
157362
157362
157362
157362
157363
157363
157363
157363
157363
157363
157363
157363
157363
157363
157363
157363
157364
157364
157364
157365
157365
157365
157365
157365
157366
157366
157366
157366
157366
157366
157365
157365
157366
157366
157366
157366
157366
157366
157365
157365
157365
157365
157365
157365
157365
157366
157366
157366
157366
157367
157367
157367
157368
157368
157368
157368
157369
157369
157369
157369
157370
157370
157370
157371
157371
157372
157372
157373
157373
157374
157374
157375
157375
157375
157375
157376
157376
157377
157377
157377
157378
157378
157378
157378
157378
157378
157378
157379
157379
157379
157379
157379
157379
157380
157380
157380
157381
157381
157381
157381
157382
157382
157382
157382
157383
157383
157383
157384
157384
157384
157385
157385
157384
157384
157384
157385
157385
157385
157385
157385
157385
157385
157384
157384
157384
157384
157383
157383
157383
157383
157382
157382
157382
157382
157382
157382
157382
157382
157383
157383
157383
157383
157383
157383
157383
157383
157383
157383
157382
157382
157382
157382
157382
157382
157382
157383
157383
157384
157384
157385
157385
157386
157386
157386
157386
157386
157386
157385
157385
157385
157385
157385
157386
157386
157386
157386
157386
157386
157386
157386
157386
157386
157386
157387
157386
157387
157386
157386
157386
157386
157386
157386
157386
157386
157386
157386
157386
157386
157387
157387
157388
157388
157388
157388
157388
157389
157389
157389
157389
157389
157389
157389
157389
157389
157389
157052
157052
157051
157051
157050
157049
157048
157046
157043
157041
157039
157036
157033
157029
157026
157022
157018
157013
157008
157003
156999
156994
156989
156984
156979
156973
156968
156962
156956
156950
156944
156938
156932
156926
156919
156913
156906
156900
156893
156886
156880
156874
156867
156861
156855
156848
156842
156836
156829
156823
156817
156811
156805
156799
156793
156787
156781
156776
156770
156765
156760
156755
156750
156745
156740
156736
156732
156728
156724
156719
156715
156711
156707
156703
156699
156694
156690
156687
156683
156679
156675
156672
156668
156665
156662
156658
156655
156651
156648
156645
156641
156638
156636
156633
156630
156627
156624
156621
156618
156616
156613
156611
156608
156606
156604
156602
156599
156597
156594
156592
156589
156588
156586
156584
156582
156580
156578
156576
156574
156572
156570
156569
156567
156566
156564
156563
156562
156561
156560
156558
156557
156556
156554
156553
156552
156550
156549
156548
156547
156546
156545
156544
156542
156541
156540
156539
156538
156537
156536
156535
156534
156533
156532
156531
156531
156530
156529
156528
156527
156525
156524
156523
156522
156521
156519
156518
156518
156516
156515
156514
156513
156512
156511
156510
156508
156507
156506
156505
156504
156503
156502
156502
156501
156501
156500
156500
156499
156499
156498
156497
156497
156496
156495
156494
156494
156493
156492
156492
156491
156490
156490
156489
156489
156488
156488
156487
156487
156486
156486
156485
156485
156485
156484
156484
156483
156482
156482
156481
156481
156480
156480
156480
156480
156480
156480
156479
156479
156479
156479
156479
156479
156479
156479
156479
156479
156479
156479
156479
156479
156479
156479
156480
156479
156480
156480
156480
156480
156480
156480
156480
156480
156479
156479
156479
156478
156477
156477
156476
156476
156476
156475
156475
156474
156474
156473
156473
156473
156473
156474
156473
156473
156474
156473
156473
156473
156473
156473
156473
156473
156473
156473
156473
156473
156472
156472
156471
156471
156471
156470
156470
156470
156469
156469
156469
156469
156469
156469
156469
156468
156469
156468
156469
156469
156469
156469
156469
156469
156469
156469
156469
156469
156469
156469
156470
156470
156470
156471
156471
156471
156472
156472
156472
156472
156472
156472
156472
156472
156471
156471
156472
156472
156472
156472
156472
156472
156472
156472
156472
156471
156471
156471
156472
156472
156472
156472
156473
156473
156473
156474
156474
156474
156474
156475
156475
156475
156475
156476
156476
156476
156477
156477
156478
156478
156479
156479
156479
156480
156480
156481
156481
156482
156482
156483
156483
156483
156483
156483
156484
156484
156484
156485
156485
156485
156485
156485
156485
156485
156486
156486
156486
156486
156486
156486
156487
156487
156487
156488
156488
156488
156488
156488
156489
156489
156489
156490
156490
156490
156491
156491
156491
156491
156491
156491
156491
156491
156491
156491
156491
156490
156490
156490
156490
156490
156489
156489
156489
156489
156489
156489
156489
156489
156489
156489
156488
156489
156489
156489
156489
156489
156489
156489
156489
156489
156489
156489
156489
156489
156488
156488
156488
156488
156488
156489
156489
156490
156490
156491
156491
156492
156492
156492
156492
156492
156492
156492
156491
156491
156492
156492
156492
156492
156492
156492
156492
156492
156492
156492
156492
156492
156492
156492
156492
156493
156492
156492
156492
156492
156492
156492
156493
156493
156493
156493
156493
156493
156493
156493
156494
156494
156494
156494
156495
156495
156495
156495
156495
156495
156495
156495
156495
156495
156495
156161
156160
156160
156159
156158
156157
156155
156152
156151
156149
156146
156144
156140
156137
156133
156129
156125
156120
156116
156111
156106
156101
156097
156092
156086
156081
156076
156070
156064
156058
156052
156046
156040
156034
156028
156021
156014
156008
156001
155994
155988
155982
155975
155969
155963
155957
155950
155944
155937
155931
155925
155919
155913
155907
155901
155895
155890
155884
155879
155874
155869
155864
155859
155854
155849
155845
155841
155836
155833
155828
155824
155820
155816
155811
155807
155803
155799
155795
155792
155788
155784
155781
155777
155774
155771
155767
155764
155760
155757
155753
155750
155748
155745
155742
155739
155736
155733
155730
155728
155725
155722
155720
155718
155715
155713
155711
155709
155706
155704
155702
155700
155698
155696
155694
155692
155690
155688
155686
155684
155682
155681
155680
155677
155676
155675
155673
155672
155671
155669
155668
155667
155666
155664
155663
155662
155661
155659
155658
155656
155656
155655
155653
155652
155651
155650
155649
155648
155647
155646
155645
155644
155643
155642
155641
155640
155639
155638
155638
155636
155636
155634
155633
155633
155631
155630
155629
155628
155627
155626
155624
155623
155622
155621
155620
155619
155617
155616
155615
155614
155613
155613
155612
155612
155611
155611
155610
155610
155609
155608
155608
155607
155606
155605
155605
155604
155603
155603
155602
155601
155601
155600
155599
155599
155598
155598
155597
155597
155596
155596
155596
155595
155595
155595
155594
155593
155593
155592
155592
155592
155591
155591
155591
155591
155590
155590
155590
155589
155589
155589
155589
155590
155589
155590
155589
155589
155589
155589
155589
155589
155589
155589
155590
155590
155590
155590
155590
155590
155590
155590
155590
155590
155590
155589
155589
155588
155588
155588
155587
155587
155586
155586
155585
155585
155584
155584
155584
155584
155584
155584
155583
155584
155584
155584
155584
155584
155584
155584
155584
155584
155583
155583
155583
155583
155583
155582
155581
155581
155581
155581
155581
155580
155579
155580
155580
155580
155579
155579
155579
155579
155579
155579
155579
155579
155579
155579
155579
155579
155579
155579
155579
155579
155580
155580
155580
155580
155581
155581
155581
155582
155582
155582
155582
155582
155582
155582
155582
155582
155582
155582
155582
155582
155582
155582
155582
155582
155582
155583
155582
155582
155582
155582
155582
155582
155582
155582
155583
155583
155584
155584
155584
155584
155585
155585
155585
155585
155586
155586
155586
155587
155588
155588
155589
155589
155589
155590
155590
155591
155591
155591
155592
155592
155593
155593
155593
155593
155594
155594
155594
155594
155595
155595
155595
155595
155595
155595
155595
155596
155596
155596
155596
155596
155597
155597
155597
155598
155598
155598
155599
155599
155599
155599
155599
155599
155600
155600
155601
155601
155601
155602
155601
155601
155601
155601
155601
155601
155601
155601
155601
155601
155600
155600
155600
155600
155600
155600
155599
155599
155599
155599
155599
155599
155599
155599
155599
155599
155599
155600
155600
155599
155600
155599
155599
155600
155599
155599
155599
155599
155598
155599
155599
155599
155599
155600
155600
155601
155601
155602
155602
155602
155602
155602
155602
155602
155602
155602
155602
155602
155602
155602
155602
155602
155602
155602
155602
155602
155603
155603
155603
155603
155603
155603
155603
155604
155603
155603
155603
155603
155603
155602
155603
155603
155603
155603
155604
155604
155604
155604
155604
155604
155604
155604
155605
155605
155605
155605
155605
155605
155605
155605
155605
155605
155605
155273
155272
155272
155272
155271
155269
155267
155265
155263
155260
155257
155255
155252
155248
155245
155241
155236
155232
155227
155222
155217
155213
155208
155203
155198
155193
155187
155182
155176
155170
155164
155159
155152
155146
155139
155133
155126
155119
155113
155106
155100
155094
155087
155081
155075
155068
155062
155056
155049
155043
155037
155031
155026
155019
155013
155008
155002
154997
154991
154986
154981
154976
154971
154966
154962
154958
154954
154949
154945
154940
154936
154932
154927
154924
154920
154915
154912
154908
154904
154900
154897
154894
154890
154887
154883
154880
154876
154873
154870
154866
154863
154860
154858
154855
154852
154850
154847
154844
154841
154839
154836
154833
154831
154829
154827
154824
154822
154820
154817
154815
154814
154811
154809
154807
154805
154803
154801
154799
154797
154796
154793
154793
154791
154790
154788
154787
154786
154785
154783
154782
154781
154779
154778
154777
154776
154774
154773
154772
154770
154769
154768
154767
154766
154765
154764
154762
154761
154760
154759
154758
154758
154757
154756
154755
154754
154753
154752
154751
154750
154749
154748
154747
154746
154745
154744
154743
154742
154740
154739
154738
154737
154736
154735
154734
154733
154731
154730
154729
154728
154727
154727
154726
154726
154725
154725
154724
154724
154723
154723
154722
154721
154721
154720
154719
154718
154718
154717
154716
154715
154714
154714
154713
154713
154712
154712
154711
154711
154710
154710
154709
154709
154708
154708
154708
154707
154707
154707
154706
154706
154705
154705
154705
154705
154705
154704
154704
154703
154703
154703
154703
154703
154703
154703
154703
154703
154703
154703
154703
154703
154703
154703
154704
154704
154704
154704
154704
154704
154704
154704
154704
154703
154703
154703
154703
154702
154702
154701
154701
154701
154701
154700
154700
154699
154699
154698
154698
154698
154698
154698
154698
154698
154699
154699
154698
154698
154698
154698
154698
154698
154698
154697
154697
154697
154696
154696
154696
154696
154696
154695
154695
154695
154695
154694
154694
154694
154694
154693
154694
154693
154693
154693
154693
154693
154693
154693
154693
154693
154694
154693
154694
154694
154694
154694
154694
154694
154695
154695
154695
154695
154695
154696
154696
154696
154696
154696
154696
154696
154696
154697
154697
154696
154697
154697
154697
154697
154697
154697
154697
154697
154697
154697
154697
154697
154697
154697
154698
154698
154698
154699
154699
154699
154699
154700
154700
154700
154700
154700
154700
154701
154701
154702
154703
154703
154704
154704
154705
154705
154705
154706
154706
154707
154707
154707
154707
154708
154708
154708
154709
154709
154709
154709
154709
154710
154710
154710
154710
154710
154710
154710
154711
154711
154711
154711
154712
154712
154712
154713
154713
154713
154713
154713
154713
154713
154714
154714
154714
154715
154715
154716
154715
154714
154715
154715
154715
154715
154715
154715
154715
154714
154714
154714
154714
154714
154714
154714
154714
154714
154713
154713
154713
154713
154713
154713
154713
154713
154714
154714
154714
154714
154714
154714
154714
154714
154714
154714
154713
154714
154713
154713
154713
154713
154714
154714
154715
154715
154715
154716
154716
154717
154717
154716
154717
154717
154717
154717
154717
154717
154717
154716
154716
154717
154715
154716
154716
154717
154717
154717
154717
154717
154717
154718
154717
154717
154717
154717
154717
154717
154717
154717
154717
154717
154717
154717
154717
154718
154718
154718
154718
154718
154718
154718
154719
154719
154719
154719
154720
154720
154720
154720
154719
154719
154719
154389
154389
154388
154387
154387
154385
154383
154381
154379
154376
154373
154370
154366
154363
154359
154356
154352
154348
154343
154338
154333
154328
154324
154318
154313
154308
154302
154297
154291
154286
154280
154274
154267
154261
154255
154248
154242
154235
154229
154222
154216
154209
154203
154197
154190
154184
154177
154171
154165
154159
154153
154146
154140
154134
154129
154123
154118
154113
154108
154103
154097
154092
154087
154083
154078
154074
154070
154065
154060
154056
154052
154048
154044
154040
154036
154032
154028
154024
154020
154016
154013
154010
154006
154003
154000
153996
153993
153989
153986
153983
153979
153977
153974
153971
153968
153966
153963
153961
153958
153956
153953
153951
153948
153945
153943
153941
153938
153936
153933
153932
153930
153928
153926
153924
153922
153920
153918
153917
153915
153913
153911
153910
153909
153908
153905
153904
153903
153902
153901
153900
153899
153897
153896
153895
153893
153892
153891
153889
153888
153887
153885
153884
153883
153882
153881
153879
153878
153877
153877
153876
153875
153873
153873
153872
153872
153871
153870
153868
153868
153867
153866
153865
153863
153862
153861
153860
153859
153858
153857
153856
153855
153853
153852
153852
153850
153849
153848
153847
153846
153846
153845
153844
153844
153843
153842
153842
153841
153841
153840
153840
153839
153838
153838
153837
153836
153836
153834
153834
153832
153832
153831
153830
153830
153829
153829
153828
153828
153828
153827
153827
153827
153826
153826
153825
153825
153826
153825
153825
153824
153824
153824
153824
153824
153823
153823
153822
153821
153821
153821
153821
153821
153821
153821
153821
153821
153821
153821
153821
153821
153821
153821
153821
153822
153822
153822
153821
153821
153821
153821
153821
153821
153821
153820
153820
153820
153819
153819
153819
153818
153818
153818
153818
153817
153817
153817
153817
153816
153816
153816
153817
153816
153816
153817
153816
153816
153816
153816
153816
153815
153815
153815
153814
153814
153814
153814
153814
153814
153814
153814
153813
153814
153813
153813
153812
153812
153812
153812
153812
153811
153811
153811
153811
153811
153811
153812
153811
153811
153811
153811
153812
153812
153812
153812
153813
153813
153813
153813
153813
153812
153812
153813
153813
153814
153814
153814
153814
153814
153814
153815
153814
153815
153815
153815
153814
153814
153815
153815
153815
153815
153815
153815
153815
153815
153815
153815
153816
153816
153816
153816
153816
153817
153817
153818
153818
153818
153817
153818
153819
153819
153820
153820
153821
153821
153821
153822
153823
153822
153824
153824
153824
153825
153825
153825
153825
153825
153825
153826
153826
153826
153827
153827
153827
153828
153828
153829
153829
153829
153829
153829
153829
153828
153828
153829
153829
153830
153830
153831
153831
153832
153832
153832
153832
153832
153832
153832
153832
153833
153833
153833
153834
153834
153833
153833
153832
153833
153833
153833
153832
153832
153832
153831
153832
153832
153832
153832
153832
153832
153832
153832
153832
153831
153831
153831
153832
153832
153831
153832
153832
153832
153832
153832
153832
153832
153832
153832
153832
153832
153831
153832
153832
153832
153832
153832
153833
153833
153833
153834
153834
153834
153834
153834
153834
153835
153834
153835
153835
153835
153835
153834
153834
153834
153833
153834
153834
153834
153834
153835
153835
153834
153835
153834
153835
153833
153833
153835
153835
153835
153835
153835
153835
153835
153836
153835
153835
153836
153836
153836
153836
153836
153836
153836
153836
153837
153837
153837
153838
153837
153837
153837
153837
153837
153837
153509
153509
153508
153507
153506
153505
153503
153500
153498
153495
153493
153489
153485
153482
153478
153475
153470
153466
153462
153458
153454
153448
153442
153437
153432
153426
153421
153416
153410
153404
153398
153392
153385
153379
153374
153367
153361
153354
153347
153341
153335
153328
153322
153316
153310
153303
153296
153290
153283
153277
153271
153265
153260
153254
153248
153243
153238
153232
153228
153222
153217
153212
153208
153203
153198
153193
153189
153184
153180
153176
153172
153167
153164
153160
153155
153151
153147
153143
153140
153136
153132
153129
153125
153122
153119
153116
153113
153109
153106
153103
153100
153097
153093
153091
153088
153086
153083
153081
153078
153076
153073
153070
153068
153065
153063
153060
153058
153056
153054
153052
153050
153048
153047
153044
153043
153041
153039
153037
153036
153034
153033
153031
153030
153028
153027
153026
153025
153023
153022
153020
153020
153019
153017
153016
153014
153013
153012
153011
153010
153008
153007
153005
153004
153003
153002
153001
153000
152999
152998
152996
152996
152994
152993
152993
152992
152990
152990
152989
152988
152987
152987
152985
152984
152983
152983
152981
152980
152979
152978
152978
152976
152975
152974
152973
152972
152971
152970
152969
152968
152967
152967
152966
152965
152964
152964
152964
152962
152962
152962
152961
152960
152959
152959
152958
152957
152957
152956
152955
152953
152952
152952
152951
152951
152951
152950
152950
152949
152949
152948
152948
152948
152947
152947
152947
152947
152947
152947
152947
152947
152946
152946
152946
152945
152945
152944
152944
152944
152943
152942
152942
152942
152942
152942
152942
152942
152942
152942
152942
152942
152942
152942
152942
152943
152943
152943
152942
152942
152943
152942
152942
152942
152942
152941
152941
152941
152941
152941
152940
152940
152940
152939
152939
152939
152939
152939
152938
152939
152938
152938
152938
152938
152937
152938
152937
152937
152937
152937
152936
152936
152936
152936
152935
152935
152935
152935
152935
152935
152936
152935
152935
152934
152935
152934
152934
152934
152934
152934
152933
152933
152932
152932
152933
152933
152933
152933
152933
152933
152933
152933
152933
152933
152933
152933
152934
152934
152934
152934
152934
152934
152934
152935
152935
152935
152935
152936
152936
152935
152935
152935
152936
152936
152936
152936
152936
152936
152936
152937
152937
152937
152937
152937
152937
152936
152937
152937
152937
152937
152938
152938
152938
152939
152939
152939
152939
152938
152939
152939
152940
152941
152941
152942
152943
152943
152944
152943
152944
152945
152945
152945
152946
152946
152947
152946
152947
152947
152948
152949
152948
152948
152949
152949
152949
152949
152950
152950
152950
152951
152951
152951
152950
152950
152949
152950
152951
152952
152952
152952
152953
152953
152953
152953
152953
152954
152953
152953
152953
152953
152954
152953
152954
152953
152954
152954
152954
152954
152954
152954
152954
152954
152954
152953
152954
152954
152954
152954
152954
152954
152954
152953
152954
152953
152954
152954
152954
152953
152953
152953
152953
152953
152954
152954
152954
152954
152954
152953
152953
152954
152953
152954
152954
152954
152954
152954
152955
152954
152955
152956
152956
152957
152957
152957
152957
152957
152956
152956
152956
152956
152956
152956
152956
152956
152956
152956
152956
152956
152956
152956
152956
152956
152956
152955
152956
152956
152956
152955
152956
152956
152957
152956
152957
152957
152957
152957
152957
152957
152957
152957
152957
152958
152958
152957
152957
152958
152958
152958
152959
152958
152959
152959
152959
152958
152958
152632
152632
152631
152631
152629
152628
152625
152623
152620
152617
152614
152611
152607
152604
152600
152597
152593
152589
152584
152580
152576
152571
152565
152560
152554
152549
152544
152538
152532
152527
152520
152514
152508
152501
152496
152489
152483
152477
152470
152463
152457
152451
152445
152438
152431
152425
152419
152413
152406
152401
152394
152389
152383
152377
152372
152366
152360
152355
152350
152345
152341
152336
152331
152325
152321
152316
152312
152308
152303
152298
152294
152290
152286
152283
152278
152274
152270
152266
152263
152259
152255
152252
152249
152245
152242
152238
152235
152232
152229
152227
152224
152220
152217
152214
152211
152209
152206
152203
152201
152198
152196
152193
152190
152188
152186
152184
152182
152180
152178
152176
152174
152172
152171
152169
152167
152165
152163
152161
152160
152158
152157
152156
152155
152152
152152
152151
152150
152148
152146
152144
152143
152143
152142
152140
152139
152138
152136
152135
152134
152133
152131
152130
152129
152127
152126
152125
152125
152124
152122
152121
152119
152118
152117
152117
152115
152115
152114
152114
152112
152112
152111
152110
152109
152108
152106
152106
152105
152104
152103
152101
152101
152100
152098
152098
152096
152096
152095
152093
152093
152091
152091
152090
152090
152089
152089
152089
152087
152087
152086
152085
152084
152084
152084
152083
152082
152082
152081
152080
152078
152076
152076
152075
152075
152075
152074
152074
152074
152073
152073
152072
152072
152073
152072
152072
152072
152073
152072
152072
152072
152072
152071
152071
152071
152070
152070
152069
152069
152069
152069
152068
152067
152068
152067
152067
152067
152067
152067
152067
152067
152067
152067
152067
152067
152067
152067
152067
152067
152067
152067
152067
152066
152066
152066
152066
152066
152066
152067
152066
152065
152065
152063
152064
152064
152064
152064
152064
152064
152063
152063
152063
152063
152063
152062
152061
152061
152061
152061
152060
152060
152060
152060
152060
152059
152059
152060
152060
152060
152060
152060
152060
152059
152059
152059
152059
152058
152059
152058
152058
152058
152058
152058
152058
152058
152058
152058
152058
152058
152058
152058
152058
152058
152058
152058
152059
152058
152059
152059
152059
152060
152060
152060
152061
152060
152061
152061
152061
152060
152061
152061
152061
152061
152061
152061
152061
152061
152062
152062
152063
152063
152062
152062
152062
152062
152061
152062
152062
152062
152062
152062
152063
152063
152064
152064
152065
152065
152065
152066
152066
152066
152067
152067
152067
152069
152069
152069
152069
152070
152070
152070
152071
152071
152071
152071
152072
152073
152074
152074
152074
152074
152074
152074
152074
152074
152075
152074
152075
152075
152076
152076
152076
152075
152076
152076
152076
152075
152076
152077
152077
152078
152078
152078
152078
152079
152078
152078
152078
152078
152078
152077
152077
152077
152077
152078
152078
152078
152078
152078
152079
152078
152079
152079
152078
152079
152079
152079
152079
152078
152078
152078
152079
152079
152079
152079
152078
152079
152079
152078
152078
152078
152079
152079
152079
152078
152078
152078
152078
152079
152080
152079
152079
152080
152080
152080
152080
152080
152081
152081
152081
152082
152082
152082
152082
152082
152082
152082
152081
152082
152082
152081
152081
152081
152081
152081
152081
152080
152081
152081
152081
152081
152080
152080
152080
152081
152081
152081
152081
152082
152081
152082
152081
152081
152082
152082
152082
152082
152082
152082
152082
152083
152083
152082
152082
152082
152083
152083
152083
152083
152083
152083
152083
152084
152084
151759
151759
151758
151757
151755
151753
151751
151749
151746
151743
151740
151737
151733
151730
151727
151724
151719
151716
151711
151706
151701
151696
151691
151686
151680
151675
151670
151664
151658
151652
151646
151640
151634
151628
151622
151615
151609
151603
151596
151590
151583
151577
151571
151565
151557
151552
151545
151539
151533
151528
151521
151516
151509
151504
151498
151493
151488
151482
151478
151472
151468
151462
151457
151452
151447
151443
151438
151434
151429
151425
151421
151417
151412
151409
151404
151400
151397
151392
151389
151385
151381
151378
151375
151371
151368
151364
151361
151358
151355
151353
151350
151347
151345
151341
151338
151335
151332
151330
151328
151326
151323
151320
151318
151316
151314
151311
151309
151307
151305
151303
151301
151299
151298
151295
151294
151292
151290
151289
151287
151286
151285
151283
151283
151281
151280
151279
151278
151276
151275
151274
151272
151270
151269
151268
151266
151264
151264
151262
151261
151260
151259
151258
151257
151255
151254
151253
151253
151251
151250
151249
151248
151247
151245
151244
151243
151242
151241
151241
151240
151239
151238
151237
151236
151235
151234
151233
151232
151231
151231
151229
151229
151228
151227
151226
151224
151223
151223
151222
151221
151220
151220
151219
151218
151217
151216
151216
151215
151215
151214
151214
151213
151212
151212
151211
151210
151209
151209
151207
151207
151205
151205
151204
151203
151203
151203
151202
151202
151202
151202
151201
151200
151201
151201
151201
151200
151200
151200
151200
151200
151200
151200
151200
151200
151199
151198
151198
151198
151198
151199
151198
151197
151196
151197
151196
151196
151196
151197
151196
151196
151196
151196
151195
151195
151195
151194
151195
151195
151195
151195
151195
151195
151195
151195
151195
151194
151195
151195
151194
151194
151194
151193
151193
151193
151193
151193
151193
151193
151192
151192
151191
151191
151191
151190
151190
151190
151189
151189
151189
151189
151188
151188
151188
151188
151187
151188
151188
151188
151188
151188
151188
151188
151188
151187
151187
151186
151186
151186
151186
151186
151187
151187
151187
151187
151187
151187
151187
151187
151186
151187
151187
151187
151187
151187
151186
151187
151187
151187
151188
151188
151188
151187
151189
151190
151190
151191
151190
151191
151190
151190
151189
151190
151189
151190
151190
151190
151190
151190
151191
151191
151192
151191
151190
151190
151191
151190
151189
151191
151191
151191
151191
151192
151192
151193
151193
151194
151195
151196
151195
151195
151195
151195
151196
151197
151196
151197
151198
151198
151199
151199
151200
151200
151200
151200
151201
151201
151202
151201
151202
151202
151203
151202
151202
151201
151201
151202
151203
151204
151204
151204
151205
151206
151206
151205
151205
151204
151205
151205
151206
151205
151206
151206
151206
151205
151206
151206
151206
151206
151206
151206
151206
151206
151206
151206
151206
151207
151207
151207
151207
151207
151208
151207
151207
151208
151207
151207
151207
151207
151208
151207
151208
151208
151208
151208
151208
151208
151207
151207
151207
151207
151207
151207
151207
151207
151207
151208
151207
151207
151208
151208
151209
151208
151209
151209
151209
151209
151210
151210
151210
151210
151211
151211
151210
151210
151210
151211
151210
151210
151210
151210
151209
151209
151209
151209
151209
151208
151208
151209
151209
151209
151209
151209
151209
151209
151209
151210
151210
151210
151210
151209
151210
151210
151210
151210
151210
151209
151210
151209
151209
151210
151210
151211
151211
151211
151211
151211
151211
151211
151211
151211
151212
151212
151212
150889
150888
150888
150887
150885
150883
150881
150878
150875
150872
150869
150867
150863
150861
150858
150854
150850
150846
150842
150837
150832
150826
150821
150816
150810
150805
150799
150793
150788
150781
150776
150770
150763
150757
150751
150745
150739
150732
150726
150720
150713
150707
150700
150694
150687
150682
150675
150669
150663
150657
150651
150647
150640
150635
150630
150624
150619
150613
150608
150602
150597
150592
150587
150583
150577
150573
150568