/*--------------------------------*- C++ -*----------------------------------*\
| =========                 |                                                 |
| \\      /  F ield         | OpenFOAM: The Open Source CFD Toolbox           |
|  \\    /   O peration     | Version:  v2012                                 |
|   \\  /    A nd           | Website:  www.openfoam.com                      |
|    \\/     M anipulation  |                                                 |
\*---------------------------------------------------------------------------*/
FoamFile
{
    version     2.0;
    format      ascii;
    class       volScalarField;
    location    "50";
    object      p_rgh;
}
// * * * * * * * * * * * * * * * * * * * * * * * * * * * * * * * * * * * * * //

dimensions      [1 -1 -2 0 0 0 0];


internalField   nonuniform List<scalar> 
65536
(
58396.8
58397.6
58397.6
58397
58396.3
58395
58393.3
58391.5
58389.5
58387.2
58384.6
58381.4
58378.4
58375.2
58371.5
58367.6
58363.5
58359
58354.4
58349.4
58344.5
58339.4
58334.3
58329.4
58324
58318.7
58313.1
58307.6
58301.7
58295.9
58289.9
58283.8
58277.7
58271
58264.6
58258.1
58251.4
58244.8
58238.3
58231.7
58225.2
58218.9
58212.6
58206.3
58200
58193.6
58187.1
58180.7
58174.3
58168
58161.9
58155.8
58149.8
58143.6
58137.6
58131.7
58125.9
58120.5
58114.7
58109.6
58104.4
58099.3
58094.3
58089.5
58084.8
58080.5
58076.1
58071.9
58067.3
58063.3
58059
58054.6
58050.5
58046.4
58042.3
58038.3
58034.3
58030.4
58026.5
58022.7
58018.7
58015.2
58012
58008.6
58005.1
58001.8
57998.3
57994.9
57991.4
57988.1
57984.8
57981.8
57978.5
57975.6
57972.7
57969.8
57966.9
57964.2
57961.4
57958.9
57956.2
57953.6
57951.4
57949.1
57946.4
57944
57941.9
57939.8
57937.4
57935.1
57932.6
57930.3
57928.6
57926.4
57924.6
57922.2
57920.2
57918.2
57916.3
57914.3
57912.4
57910.3
57908.7
57907.5
57906.6
57905.4
57904.2
57903
57901.5
57900.5
57899.3
57898.1
57896.7
57895.6
57894.2
57893
57891.6
57890.5
57889.3
57888.4
57887.3
57886.3
57885
57883.9
57882.7
57881.6
57880.4
57879.5
57878.2
57877.3
57876.6
57875.8
57874.8
57874
57873
57872
57871
57869.7
57868.8
57867.6
57866.4
57864.9
57864
57862.9
57862.2
57860.7
57859.5
57858.2
57856.8
57855.6
57854.7
57853.7
57853
57851.6
57850.5
57849.4
57848.3
57847.1
57846
57845.1
57844.4
57843.6
57843.1
57842.5
57841.9
57841.3
57840.8
57840.5
57840
57839.4
57838.8
57838.1
57837.3
57836.5
57835.7
57834.9
57834.2
57833.2
57832.8
57832.3
57831.9
57831.3
57830.8
57830
57829.3
57828.7
57828.6
57828
57827.8
57827.3
57826.9
57826.5
57825.8
57825.2
57824.9
57824.1
57823.7
57823.1
57822.7
57822.5
57822.1
57822
57821.8
57821.8
57821.7
57821.4
57821.2
57821.3
57821.3
57821.3
57821.3
57821.3
57821.2
57821
57821
57821
57821
57821
57821
57821.1
57821.1
57820.8
57821.1
57821.2
57821.2
57821
57821.5
57821.7
57821.9
57821.7
57821.4
57821
57820.9
57820.4
57819.9
57818.9
57818.4
57818.3
57818
57817.5
57817.2
57816.3
57816
57815.6
57815.3
57815.1
57814.9
57815.1
57815
57815
57815
57815
57814.8
57814.8
57814.9
57815
57815.1
57815.2
57815
57814.6
57814.5
57814.3
57814
57813.3
57813.1
57812.7
57812.4
57811.9
57811.7
57811.9
57811.8
57811.9
57811.6
57811.4
57811.1
57810.9
57810.7
57810.6
57810.5
57810.6
57810.6
57810.8
57810.7
57810.8
57810.8
57811
57810.8
57811
57810.9
57811.2
57811.1
57811.4
57811.5
57811.8
57811.9
57812.3
57812.5
57812.8
57812.8
57813.3
57813.5
57813.6
57813.7
57813.7
57813.9
57813.8
57813.6
57813.4
57813.1
57813.4
57813.3
57813.7
57813.6
57813.6
57813.6
57813.4
57813.4
57813.1
57813.1
57813.2
57813.3
57813.4
57813.7
57813.8
57813.9
57814.3
57814.9
57815.2
57815.6
57815.7
57816.1
57816.1
57816.2
57816.7
57816.9
57817.2
57817.4
57817.6
57817.9
57818
57818.7
57819.4
57819.9
57820.3
57820.7
57821.2
57821.6
57822
57822.6
57822.9
57823.5
57823.2
57823.9
57824.3
57824.7
57825
57825.3
57825.6
57825.8
57826
57826
57826.1
57826.5
57826.5
57826.8
57826.9
57827.1
57827.1
57827.4
57827.6
57827.9
57828
57828.2
57828.6
57828.9
57829.2
57829.6
57829.8
57830
57830.2
57830.4
57830.7
57831
57831.5
57831.8
57832.2
57832.3
57832.5
57832.4
57832.2
57832.3
57832.5
57832.7
57832.8
57832.8
57832.9
57833
57832.9
57832.8
57832.5
57832.3
57832
57831.9
57831.4
57831.2
57830.8
57830.6
57830.2
57830.1
57830.3
57830.3
57830.5
57830.4
57830.5
57830.5
57830.8
57830.9
57830.9
57831
57831
57831
57830.9
57831
57830.9
57830.9
57830.6
57830.6
57830.3
57830.4
57830.2
57830.4
57830.4
57830.9
57831.2
57831.7
57832
57832.7
57832.9
57833.5
57833.6
57833.8
57833.7
57833.5
57833.4
57833.4
57833.4
57833.4
57833.4
57833.5
57833.7
57833.9
57834
57834
57834.2
57834.3
57834.3
57834.3
57834.3
57834.3
57834.3
57834.6
57834.1
57834.4
57834.4
57834.1
57834.1
57833.9
57834.2
57834
57834.4
57834.3
57833.7
57833.5
57833.6
57834.3
57834.9
57835.1
57835.7
57835.8
57836
57836.1
57836.2
57836.3
57836.6
57836.9
57836.9
57837.1
57837
57837.1
57837
57837
57837
58393.6
58393.8
58393.6
58392.9
58392.1
58390.9
58389.6
58387.4
58385.1
58382.8
58380.4
58377.1
58374.3
58370.8
58367.5
58363.7
58359
58354.4
58349.8
58344.6
58340.1
58334.9
58330.2
58325.3
58319.6
58314.2
58308.7
58303.2
58297.1
58291.5
58285.4
58279.2
58273
58266.6
58259.8
58253.5
58246.7
58240.2
58233.6
58226.9
58220.4
58214.1
58207.8
58201.4
58195
58188.6
58182.1
58175.8
58169.5
58163.2
58157.2
58150.8
58145
58138.7
58132.8
58126.9
58121.2
58115.7
58110
58104.9
58099.7
58094.4
58089.5
58084.6
58080
58075.8
58071.5
58067.5
58063.2
58058.6
58054.3
58050.2
58046.3
58041.7
58037.7
58033.4
58029.5
58025.6
58021.7
58017.9
58014.4
58011
58007.3
58003.8
58000.4
57997.1
57993.5
57990.1
57986.6
57983.4
57980.1
57977
57974.5
57971.3
57968.2
57965.7
57962.3
57959.7
57956.8
57954.3
57951.8
57949.5
57947
57944.6
57942
57940.1
57937.4
57935.2
57932.7
57930.4
57927.6
57925.9
57923.9
57922
57920.2
57918.4
57916.4
57913.9
57912
57910.1
57908.4
57906.6
57904.9
57903.6
57902.1
57900.8
57899.8
57898.5
57897.5
57896.4
57894.7
57893.6
57892.2
57891
57889.6
57888.3
57887.1
57886.1
57885.4
57883.9
57882.7
57881.6
57880.3
57879.2
57877.7
57876.5
57875.4
57874.7
57874.3
57873.2
57871.8
57871.1
57870.1
57869.4
57868.5
57867.6
57866.6
57865.8
57864.4
57863.2
57862
57860.8
57859.4
57858.3
57857
57856
57855.4
57853.7
57852.8
57851.5
57850.3
57849.6
57848.2
57847.1
57845.9
57844.8
57843.8
57843.2
57842.2
57840.8
57839.9
57839.2
57838.6
57838.6
57837.6
57837.2
57836.8
57835.9
57835.5
57834.8
57834.1
57833.5
57832.8
57831.9
57831.2
57830.4
57829.7
57829.1
57828.7
57827.7
57827.3
57826.7
57826.2
57825.5
57825.4
57824.4
57823.9
57823.3
57823.1
57822.5
57822.6
57822.6
57821.9
57821.2
57820.3
57819.6
57819.1
57818.6
57818.6
57817.8
57817.6
57817.3
57817.2
57817.3
57817.2
57817.4
57816.9
57816.6
57816.6
57816.8
57817.1
57816.9
57817.3
57816.8
57816.4
57816.2
57816.1
57816.2
57816.5
57816.4
57816.6
57817
57816.8
57816.8
57817.2
57817.1
57817.6
57817.2
57817.3
57817.2
57817.4
57816.7
57816.3
57815.9
57815.7
57814.6
57813.9
57813.7
57813.3
57812.9
57812.4
57812.1
57811.4
57811.1
57810.9
57810.9
57810.6
57810.7
57811.2
57810.9
57810.6
57810.7
57810.7
57810.6
57810.5
57811
57810.6
57810.6
57810.5
57810.5
57810.7
57810
57810.3
57809.2
57808.8
57808.3
57808
57807.8
57807.5
57807.3
57807.3
57806.8
57806.7
57806.6
57806.5
57806.4
57806.2
57806.1
57805.9
57806
57805.9
57806.1
57806.1
57806.6
57806.2
57806.3
57806.2
57806.4
57806.4
57806.6
57806.5
57806.9
57806.9
57807.2
57807.7
57807.8
57808
57808.3
57808.5
57809.1
57808.8
57808.9
57809.1
57809.4
57809.7
57809.2
57809
57808.8
57808.5
57809.6
57809.4
57809.4
57809.3
57809.2
57809.3
57808.9
57808.7
57809
57808.6
57808.5
57808.7
57808.9
57809.2
57809.4
57809.8
57810.3
57810.5
57810.7
57811.1
57811.3
57811.6
57811.7
57812.1
57812.1
57812.6
57812.6
57812.9
57813.3
57814
57814.3
57815.1
57815.1
57815.3
57816.3
57816.4
57816.8
57817
57817.5
57818.1
57818.6
57819.1
57819.5
57820
57819.8
57820.1
57820.2
57820.8
57820.8
57821
57821.4
57822
57822.1
57822.1
57822.2
57822.4
57822.6
57822.7
57823.1
57823.1
57823.3
57823.5
57824.1
57824.1
57824.2
57824.2
57824.6
57825
57825.2
57825.6
57825.7
57825.9
57826
57826.6
57826.8
57827.2
57827.5
57827.8
57828.2
57828
57828.3
57828.3
57828
57827.9
57828
57828
57828.1
57828.2
57828.2
57828.1
57827.9
57828
57827.4
57827.2
57826.9
57826.5
57826.3
57826
57826.2
57826.1
57825.9
57826.4
57826
57825.9
57825.8
57825.9
57826.2
57826.3
57826.7
57826.5
57826.6
57826.5
57826.6
57826.5
57826.4
57826.4
57826.2
57826
57825.9
57825.8
57825.7
57825.9
57825.7
57826.3
57826.5
57827.8
57827.8
57828.9
57828.5
57829.1
57829.1
57829.7
57829.4
57829.4
57829.5
57829.1
57828.9
57828.9
57829.1
57829.2
57829.2
57829.4
57829.8
57829.5
57829.9
57829.5
57829.6
57829.5
57829.7
57829.6
57829.6
57829.5
57829.6
57829.9
57829.8
57829.8
57829.7
57829.5
57829.7
57829.8
57830
57830.5
57829.8
57829.8
57829.8
57829.6
57830.4
57830.7
57831.2
57831.3
57831.9
57831.7
57832.1
57832.3
57832.2
57832.3
57832.4
57832.4
57832.4
57832.5
57832.4
57832.5
57832.5
58387.6
58386.8
58386.3
58385.5
58384.6
58383.2
58382.3
58379
58377.4
58375.1
58373.1
58370.3
58367.1
58363.2
58360.1
58355.9
58351
58346
58341.2
58336.7
58331.7
58326.8
58322.4
58317.6
58311.7
58306.1
58301.3
58295
58289.1
58283
58277.1
58271.2
58265.1
58259.1
58252.3
58245.5
58238.6
58231.8
58225
58218.5
58212.1
58205.6
58199
58192.9
58186.6
58180.3
58173.7
58167.2
58160.6
58154.5
58148.4
58142.3
58136.5
58130.1
58124
58118.1
58112.5
58107.3
58102.3
58096.7
58091.2
58086.1
58081
58076.4
58071.8
58067.3
58063.2
58058.8
58055.2
58050.4
58046.2
58042.1
58038.1
58033.1
58028.8
58024.7
58020.8
58017.3
58013.2
58009.3
58005.9
58002.6
57998.8
57995.3
57991.7
57988.4
57984.9
57981.4
57977.7
57974.1
57971.2
57968.5
57966
57963.1
57959.7
57957.6
57953.9
57951.2
57948.3
57945.9
57943.2
57941.2
57938.3
57936.1
57934.3
57931.5
57928.9
57926.5
57924.3
57922.5
57920.7
57918.4
57916.1
57914
57912.2
57911
57908.9
57906.1
57903.8
57902
57900.6
57899.9
57897.5
57896.2
57894.6
57892.7
57891.3
57890.2
57889.3
57888.4
57886.7
57885.5
57883.8
57882.7
57881.5
57880.3
57878.8
57877.5
57876.3
57875.4
57874.4
57873
57871.7
57870.5
57869.6
57868.5
57867.2
57866.3
57866
57864.8
57863.8
57862.7
57861.7
57860.8
57859.9
57858.9
57858
57857.7
57856
57854.9
57853.8
57853.1
57852.2
57850.9
57849.5
57848.5
57847.9
57846.1
57845.4
57843.8
57842.5
57841.7
57840.5
57839
57837.7
57836.5
57835.7
57835.2
57834.3
57832.6
57831.9
57831.2
57831
57831.1
57829.9
57829.8
57829.3
57828
57827.3
57826.8
57826.4
57825.6
57824.5
57823.6
57823
57822.2
57821.6
57821.4
57820.6
57819.6
57818.9
57818.3
57817.7
57817.4
57817.9
57816.6
57815.6
57814.9
57814.5
57814.6
57815
57815.1
57813.9
57813.3
57812
57811.3
57810.8
57810.6
57810.9
57810
57809.6
57809.5
57809.5
57809.1
57809.3
57809.6
57808.9
57808.5
57808.4
57808.5
57809.1
57808.8
57809.5
57809.2
57808.4
57808.1
57808.1
57808.2
57808.2
57808.3
57808.2
57809
57808.6
57808.7
57809.3
57809.6
57809.8
57809.1
57809.1
57809.3
57809.6
57808.8
57808.2
57807.8
57808.1
57807.4
57806.6
57805.6
57805.4
57804.9
57805
57804.3
57803.7
57803
57802.8
57803
57802.5
57802.5
57803.4
57802.6
57802.6
57802.6
57802.7
57803.2
57802.8
57803.4
57802.7
57802.6
57802.6
57802.8
57802.4
57802
57802.1
57801.6
57800.6
57799.9
57799.8
57799.9
57799.8
57799.5
57799.2
57798
57798.4
57798.5
57798.2
57797.7
57797.5
57797.4
57797.6
57797.7
57797.7
57797.9
57797.8
57798.4
57798
57798
57797.8
57797.7
57797.9
57798.2
57798.3
57798.6
57798.8
57799.2
57799.8
57799.6
57799.9
57800.4
57800.9
57801.3
57800.7
57800.6
57800.8
57801.6
57801.8
57800.9
57801.1
57801.1
57801.6
57802.3
57801.7
57801.1
57801.1
57801.1
57801.7
57801.3
57801.5
57800.8
57800.7
57800.6
57800.5
57801
57801.1
57801.5
57802.1
57802.9
57802.4
57802.8
57802.9
57802.9
57803.3
57803.5
57804.1
57804.2
57804.3
57804.4
57804.8
57805.5
57806.7
57807.5
57807.8
57807.6
57807.9
57808.3
57808.5
57808.8
57809.2
57809.5
57809.9
57810.3
57811
57812.1
57812.3
57812
57811.8
57812.2
57812.1
57812.8
57813
57813.4
57814
57814.2
57814
57814.1
57814
57814.2
57814.6
57815.4
57815
57815.3
57815.6
57816.9
57816.8
57816.2
57816.5
57816.6
57817
57817.4
57817.5
57817.5
57817.4
57818
57818
57818.5
57818.8
57819.3
57819.8
57820.1
57821.2
57820.4
57819.7
57819.7
57819.4
57819.6
57819.7
57819.6
57819.9
57819.9
57819.6
57819.6
57820
57819.2
57818.7
57818.4
57818.4
57818.2
57818.1
57818.4
57818.2
57817.9
57818.2
57818
57817.8
57818
57818.2
57818.3
57818.5
57819
57818.2
57818.4
57818.2
57818.3
57818.5
57818.4
57818
57817.7
57817.6
57817.2
57817.6
57817.5
57817.8
57818.2
57818.7
57819.3
57820.4
57820.3
57821.4
57821.1
57821
57821.1
57821.7
57821.4
57821.9
57821.9
57820.9
57821
57820.9
57820.8
57820.8
57821.1
57821.1
57821.6
57821.4
57821.9
57821.2
57821.3
57821.3
57821.4
57821.7
57822.1
57822.4
57822.1
57823.2
57822.1
57821.8
57821.9
57821.7
57822
57821.5
57822.1
57822.2
57822.7
57822.9
57823
57822.7
57822.6
57822.4
57822.8
57823
57823.7
57823.6
57824.2
57824.5
57824.1
57824.1
57824.1
57824.1
57824.1
57824.2
57823.9
57823.9
57824
58377.5
58376.6
58376.5
58375.5
58374.8
58373.3
58372.2
58369.1
58366.8
58364.2
58361.1
58359
58356.2
58352
58348.9
58344.8
58339.4
58334.5
58329.7
58324.5
58319.9
58315.6
58311.5
58305.7
58300.4
58295
58290.7
58284.2
58278.1
58272.3
58266
58260.4
58254.6
58248.3
58240.9
58234.5
58227.3
58220.4
58214.1
58206.9
58200.3
58193.7
58187.4
58180.8
58174.6
58168.5
58161.7
58155.3
58149.3
58142.5
58136.5
58130.5
58125.1
58118.2
58112
58106.3
58101
58096.2
58090.8
58085.5
58079.4
58074.2
58069.2
58064.3
58060.1
58055.9
58052
58047.3
58043.6
58038.1
58033.7
58029.9
58025.6
58021
58016.7
58012.3
58008.7
58005.4
58001.2
57997.3
57994.3
57990.6
57986.9
57983.1
57979.6
57976.3
57972.3
57969
57965.8
57962.6
57959.5
57956.7
57954.7
57952.3
57948.8
57946.2
57942.7
57940
57936.8
57934.3
57931.9
57929.8
57927.5
57924.8
57923.5
57920.5
57917.2
57914.9
57912.4
57910.1
57909.5
57907.3
57904.7
57902.4
57900.9
57898.8
57897.6
57894.7
57892.4
57891
57888.6
57888.9
57886.5
57885.4
57882.9
57881.5
57880.2
57879
57878.2
57877.2
57875.2
57873.5
57872.9
57871.9
57870.3
57869.1
57867.3
57866.3
57865
57864.2
57863.4
57861.4
57859.9
57858.7
57857.8
57856.2
57854.9
57854.1
57853.5
57853.3
57852.2
57851.3
57850.6
57849.6
57848.7
57847.3
57846.5
57845.8
57844.6
57843.3
57842.4
57841.9
57840.8
57839.4
57838.6
57837.3
57836.6
57834.3
57832.8
57832
57830.9
57830.3
57829.8
57828.3
57826.5
57824.9
57823.9
57823.3
57822.8
57821.3
57820.4
57819.9
57819.4
57819.8
57818.7
57818.8
57818.2
57817.1
57816.3
57816
57814.7
57814.5
57813
57812.2
57811.6
57810.9
57810.3
57810.5
57809.4
57807.7
57807.2
57807
57806.3
57805.5
57806
57804.8
57804
57803
57802.6
57802.4
57803.1
57802.3
57802.5
57801.3
57800.2
57799.7
57799.3
57799.2
57799.7
57798.6
57798
57797.7
57797.6
57798
57798.4
57798.8
57797.9
57796.8
57796.6
57796.8
57796.8
57796.9
57797
57797.6
57796.4
57795.9
57795.7
57795.9
57796.9
57796.7
57797.1
57797.6
57797.3
57797.4
57798.5
57798.8
57798.2
57797.5
57797.5
57798.2
57797.9
57797.6
57796.5
57796
57795.5
57795.5
57795.2
57794.4
57793.8
57793.8
57794.2
57793.5
57792.4
57791.7
57791.3
57791.2
57790.5
57791.1
57791.4
57791.9
57791.5
57791.8
57792.3
57792.5
57791.7
57792.3
57791.4
57791.4
57791.1
57791.6
57791.2
57790.5
57791.3
57790.2
57789.4
57789
57788.8
57789.1
57789.1
57788.8
57789.3
57788.2
57787.5
57787
57786.4
57786.7
57785.9
57786.3
57786.1
57786.6
57786
57786.1
57786.3
57786.5
57786.2
57786.2
57786
57786.5
57786.3
57787
57786.9
57787.6
57787.1
57787.6
57788.4
57788.1
57788.4
57789.2
57789.4
57788.9
57789.4
57788.6
57788.8
57789.8
57789.2
57789.2
57789
57789.5
57791.5
57791.5
57790.8
57791.1
57790.3
57790.4
57789.9
57789.9
57790.8
57789.8
57789.2
57789.2
57789.7
57790.2
57790.4
57790.9
57791.3
57792
57791.1
57791.4
57792.1
57792.1
57792.4
57792.5
57792.9
57792.8
57793.7
57793
57793.1
57794
57795.8
57795.9
57795.7
57796.1
57796.4
57797.7
57797.1
57797.9
57797.9
57797.9
57798.5
57799.2
57800.1
57801.6
57801.5
57800.5
57800.4
57800.5
57801
57801.2
57801.4
57801.9
57802.9
57803.2
57803.3
57802.8
57803
57803.3
57803.6
57804
57803.9
57804
57804.4
57805.7
57805.7
57805.1
57805.2
57805.5
57806.4
57806.2
57806.2
57806
57806.3
57806.3
57806.2
57806.8
57807.1
57807.5
57808.4
57809.5
57811.1
57809.9
57808
57808.5
57808.2
57808
57808
57808.8
57809
57808.6
57808.4
57808
57807.5
57807.1
57807.3
57807.2
57807
57806.8
57807
57807.1
57807.3
57806.6
57806.6
57807.1
57806.5
57806.3
57806.4
57807.2
57807.2
57807.9
57807.3
57807.3
57807.5
57807.4
57807.9
57807.3
57807.1
57806.5
57806.7
57806.5
57806.7
57806.3
57806.6
57806.9
57807.6
57808.5
57809.3
57809.2
57810.3
57810.4
57809.9
57809.8
57809.9
57810.2
57811.1
57810.9
57810.3
57809.8
57809.6
57809.9
57809.8
57810
57810.7
57809.8
57810.2
57810.2
57810.2
57810
57809.7
57809.9
57810.2
57810.9
57812.1
57811.5
57811.5
57810.6
57811.2
57810.8
57810.6
57810.9
57811.1
57811.9
57811.2
57812.1
57812.5
57811.6
57812.3
57811.2
57811.3
57811.7
57811.6
57811.8
57811.9
57813
57813.4
57812.8
57812.4
57812.5
57812.6
57812.7
57812.8
57812.7
57812.7
57813.2
58364.8
58363.4
58363.4
58361.9
58361.9
58359.9
58359
58357
58353.9
58350.7
58348.9
58345.3
58341.1
58337.5
58334.2
58330
58325.1
58320.6
58315.8
58311.5
58307.5
58302
58297.8
58291.6
58286.7
58280.6
58275
58270.4
58264.2
58257.9
58251.6
58246.1
58238.6
58233.5
58226.1
58220
58212.8
58206.3
58200.5
58192.8
58185.8
58179.3
58172.4
58166.1
58159.9
58154.4
58146.9
58141.1
58135.3
58127.9
58121.5
58114.5
58109.1
58102.1
58096.4
58091
58085.9
58081.8
58076.8
58071.4
58064.9
58058.8
58054.1
58049.9
58045.3
58041
58038.1
58033.5
58028.4
58023.2
58018.9
58015
58010.9
58006
58001.3
57997
57992.9
57988.8
57985.7
57982
57979.5
57976.1
57972.3
57968
57964.7
57961.9
57957.9
57954
57950.6
57947.9
57944.1
57942.1
57939.3
57937
57933
57930.5
57927
57925.3
57922.2
57919.7
57917.4
57915.9
57912.4
57909.7
57908.2
57905.9
57902.1
57899.8
57896.7
57895.1
57893.9
57892.5
57889.6
57888.1
57886.7
57884.2
57883.2
57880.6
57878.4
57877.3
57874.7
57874.2
57873.2
57871.6
57868.1
57866.6
57865.8
57864.7
57864
57863.3
57861.3
57859.9
57858.9
57858.5
57855.9
57855.3
57853
57851.8
57851.4
57850.1
57848.5
57846.4
57844.8
57843.6
57843.5
57840.9
57839.7
57838.9
57839.5
57839.6
57838.4
57836
57835.8
57834.6
57834.3
57833
57832.4
57830.7
57830.3
57828.9
57828.2
57827.5
57826.2
57825.4
57824.4
57822.5
57821.9
57820
57818.5
57817.9
57816.2
57815.1
57814.8
57814.2
57811.9
57810.3
57809.7
57809.4
57808.8
57807.2
57806.4
57805.6
57805.3
57804.8
57804.4
57804.5
57803.8
57802.3
57801.2
57801.8
57800.3
57800.5
57798.8
57797.9
57797.8
57796.8
57795.5
57795.5
57793.6
57792.8
57792.5
57792.1
57791.4
57791.1
57790.9
57790.4
57788.8
57788.2
57787.9
57787.4
57788.4
57787.3
57788
57786.4
57785.7
57785.9
57785
57784.9
57785.6
57784.5
57784.1
57783.9
57784.7
57783.9
57784.9
57784.6
57783.5
57782.4
57781.6
57782.6
57782.3
57782.7
57782.1
57782.6
57781.6
57781.1
57781.2
57781.7
57782.9
57782.7
57782.3
57783.2
57783.1
57783.3
57784.6
57784.5
57784.1
57783.2
57782.8
57782.4
57782.6
57783.1
57781.9
57781.3
57781.4
57781
57780.4
57779.4
57779.1
57778.7
57779.5
57779.7
57778.9
57777.6
57777.4
57777.2
57777
57777
57778.1
57778.5
57777.8
57777.6
57778.5
57777.8
57776.9
57777.4
57776.7
57777.3
57776.3
57777.2
57777
57776.3
57776.8
57776.3
57775.7
57774.6
57774.5
57775.2
57774.8
57774.4
57776.1
57775.1
57773.2
57772.5
57772.8
57772.4
57772.1
57771.7
57771.7
57772.2
57771.4
57771.5
57771.5
57771.8
57772.3
57771.9
57771.6
57771.5
57772.1
57773.1
57772.5
57773.5
57773.2
57774.2
57774.6
57773.8
57773.7
57774.6
57773.7
57772.6
57774.6
57773.3
57774.1
57775
57774.8
57774.2
57774.9
57775
57776.9
57776.1
57777
57777.5
57776.4
57776.5
57775.7
57775.3
57775.6
57775.9
57775.6
57775
57775.2
57776.6
57776.5
57776.2
57777.3
57777.5
57776.6
57777.1
57776.8
57777.2
57778.4
57778.3
57778.8
57778.3
57779.8
57778.3
57779.3
57779.9
57781.3
57782.1
57782.5
57781.9
57782
57783.3
57783.3
57784
57782.9
57783.8
57783.9
57784.5
57785.2
57787.2
57786.7
57785.9
57785.8
57785.5
57786.9
57786.6
57786.2
57787.2
57788.8
57789.3
57789.8
57789.3
57789.2
57789.3
57789.6
57789.6
57789.7
57789.6
57789.8
57790.2
57789.9
57790.4
57791.3
57791
57792.4
57792
57792.8
57792.3
57792.2
57792.8
57793.7
57792.8
57792.8
57793.4
57794.1
57795.8
57796.2
57796.6
57796.2
57794.9
57793.4
57792.9
57793.5
57794.8
57795.1
57794.2
57794.1
57793
57792
57792.4
57792.2
57792.8
57792.3
57792.5
57792.8
57794
57794
57792.4
57792
57791.6
57791.7
57792
57792.6
57793.2
57792.9
57793.4
57792.9
57793.6
57792.9
57793.2
57794.1
57793.1
57792.7
57792.3
57792.8
57792.7
57793.3
57792.7
57792.4
57792.9
57793.7
57795.1
57795.2
57795
57795.4
57795.9
57794.9
57794.5
57794.5
57795.3
57796.4
57796.2
57795.6
57795.6
57795.6
57795.9
57795.5
57795.2
57796.8
57796.1
57795.7
57795.9
57795.6
57794.7
57794.7
57794.8
57795.3
57796.5
57796.2
57797.4
57795.2
57795.1
57797.1
57797.2
57797
57797.4
57797
57797.9
57797.1
57798.1
57798.6
57797.7
57796.9
57796.5
57796.5
57797.5
57797
57797.3
57797.8
57798.3
57798.9
57798.2
57798.1
57798.7
57798.5
57799
57799.2
57798.1
57798
57798.8
58348.7
58346.7
58345.7
58345.1
58345.2
58343.2
58342.4
58339.6
58337.2
58333.5
58332.4
58328
58323.3
58319.3
58316
58312.9
58307.9
58303.2
58298.7
58295.7
58292.6
58286.2
58281
58275.2
58269.5
58262.9
58258.3
58253.5
58247.6
58241.2
58233.9
58227.8
58220.4
58213.5
58208.4
58201.4
58195.4
58188
58182.3
58175.6
58168.3
58161.5
58154.3
58148.3
58142.6
58136.3
58128.5
58122.2
58114.1
58108.7
58102.5
58095.4
58089.5
58084.1
58078
58073.4
58067.4
58063.3
58058.5
58051.7
58046.7
58042.2
58036.8
58033
58028
58023.5
58020
58015.5
58010.7
58005.1
58001.4
57997.6
57993.7
57988.7
57983.6
57978.4
57974.3
57970.4
57967.6
57963.4
57960.8
57958
57953.6
57949.4
57946.1
57943.5
57939.5
57935.9
57932.2
57929.3
57926.5
57924.5
57920.6
57918.2
57914.4
57912.5
57909.4
57906.7
57903
57901.4
57898.7
57897.4
57894.5
57891.2
57889.4
57886.8
57883.6
57880.9
57879.3
57877.8
57876
57873.2
57872.6
57870.8
57868.9
57866.1
57864.9
57862.8
57860.2
57858.8
57857.9
57856.3
57854.1
57852.9
57850.7
57849.5
57848.4
57847.5
57846.7
57845
57843.6
57842.9
57841.7
57838.9
57837.6
57835.9
57834.8
57834.9
57834.3
57831.5
57829.5
57828.4
57827.1
57826.2
57826.2
57824.7
57823.4
57822.9
57822.6
57821.3
57820.7
57818.2
57816.7
57816.6
57815.6
57813.8
57814.7
57813.1
57812
57810.3
57810.8
57809.6
57808.7
57808.1
57807
57804.6
57803.8
57802
57801.2
57800.7
57798.8
57797.7
57797.1
57795.9
57794.7
57792.7
57791.9
57791.8
57790.2
57789.6
57789.7
57789
57789
57788
57786.8
57787.7
57786.2
57785.5
57784.3
57783.9
57783.4
57782.9
57780.9
57780.1
57780.6
57779.9
57777.9
57777.2
57775.2
57774.1
57774.2
57773.7
57773.4
57774.4
57773.5
57773.3
57771.9
57770.5
57770.1
57770
57770.3
57770.6
57770.5
57769.3
57768.7
57769.3
57767.5
57767.2
57767.3
57767.7
57767.3
57767.4
57767.9
57767
57767.5
57766.1
57766.3
57765.1
57764.4
57764.6
57763.8
57764.5
57764.1
57764
57763.6
57763.6
57763.8
57763.8
57764.2
57765.5
57764.9
57765.4
57765.9
57765.1
57766.5
57765.2
57765.5
57765.1
57765.1
57764.4
57764.1
57764.5
57764.2
57763.3
57764.2
57763.7
57763.5
57762.3
57762
57761.3
57761.2
57761.9
57761.8
57760.2
57759.8
57760.6
57760.7
57759.5
57760.7
57760.2
57760.1
57759
57759.9
57759.6
57758.8
57758.4
57758.7
57758.6
57757.4
57758.2
57758.8
57758.2
57757.2
57758.7
57758.5
57757.4
57757.1
57758.2
57757.8
57757
57757.2
57757.6
57755.4
57755.2
57756.4
57755.8
57755.5
57754.5
57753.1
57752.9
57753.7
57754.4
57754.4
57754.5
57755
57754.1
57754
57754.1
57754.6
57755.5
57754.6
57754.4
57755
57757
57756.9
57755.7
57755.5
57755.6
57756.6
57755.6
57756.8
57756
57756.2
57757.1
57756.9
57757.6
57757.7
57756.9
57757
57758.1
57759.3
57758.8
57758.3
57757.4
57758
57757.3
57758.1
57758.7
57758.3
57758.3
57758.2
57758.9
57757.6
57758.8
57759.4
57759.6
57758.5
57760
57759.6
57760.5
57761.4
57761.3
57760.8
57761.2
57759.8
57760.3
57761.5
57761.8
57762.7
57764.8
57765.8
57765.3
57765.7
57766.1
57765.8
57766.4
57766.2
57766.5
57766.7
57767.6
57768
57769.5
57768.4
57768.5
57769.5
57769.8
57771.2
57770.1
57769.9
57770.7
57771
57771.9
57771.4
57772.9
57771.4
57772.2
57773.1
57773.1
57772.3
57772.1
57772.5
57772
57772.7
57772.6
57774.2
57773.4
57774.4
57775.2
57776
57774.4
57775.4
57776.3
57777.9
57775.8
57775.3
57775.6
57776.3
57777.2
57776.4
57777.1
57775.9
57776.4
57775.5
57774.9
57775
57776.6
57777
57776.9
57775.8
57775.7
57775.1
57775.6
57775.2
57776.4
57775.9
57775.6
57776.3
57777.1
57776.3
57775.7
57775.3
57775.2
57775.2
57775.5
57775.7
57775.1
57775.2
57775.7
57775.7
57777.4
57776.9
57776.7
57776.8
57776.3
57774.9
57774.3
57775.8
57775.3
57776.2
57775.7
57776.3
57777
57777.6
57778
57777.5
57777.2
57777.7
57779.3
57778.3
57778.3
57778.2
57778.3
57779.6
57778.5
57777.9
57778.4
57778.3
57779.2
57778.3
57778.8
57779.9
57780.3
57779
57779.5
57779.2
57777.6
57777.5
57777.6
57777.6
57778.8
57777.7
57779.3
57779.3
57777.9
57777.5
57779.4
57779.7
57780.3
57780
57780.5
57779.7
57780.9
57781.5
57781.1
57780.4
57778.8
57779
57779.5
57779.7
57781
57779.6
57779.9
57780.8
57780.9
57780.5
57782
57782
57782.7
57782.5
57780.8
57780.2
57779.6
58328.6
58326.6
58325.2
58324.5
58323.2
58323
58321.5
58318.9
58314.6
58312
58309.7
58306.2
58303
58299.3
58295.6
58293
58288.5
58283.5
58278.9
58274.6
58271.6
58266.8
58260.7
58254.2
58248.4
58243.2
58238.3
58232.7
58225.5
58220.5
58213.4
58205.8
58199.1
58192.1
58187.7
58180
58175
58167.6
58161.7
58153.4
58147
58139.5
58133
58127.8
58119.9
58114.1
58106.9
58100
58093.4
58088.1
58081.2
58074.6
58067.8
58062.8
58056.8
58050.4
58045.5
58040.1
58035.7
58029.9
58026.4
58022.4
58015.1
58009.5
58006.4
58001.9
57996.4
57993.4
57988.2
57983
57979
57975.8
57971.7
57967.8
57962.3
57956.7
57952.8
57949.3
57945.5
57941.5
57938.8
57935.3
57930.7
57926.9
57924.3
57921.2
57917.8
57914
57910.5
57907.2
57905
57900.9
57898.8
57895.9
57892.4
57890.1
57888
57883.6
57881.1
57878.4
57877
57875
57872
57869.5
57866.5
57864.6
57860.8
57859.4
57857.1
57856.6
57855
57852.2
57852.2
57848.8
57847.9
57844.1
57841.9
57840.8
57838.8
57836.7
57835.6
57834.1
57833.5
57831.2
57830.6
57829.4
57828.8
57827.3
57825.6
57823.4
57821.7
57821.5
57821.6
57818.1
57817.4
57816.1
57814.8
57814.4
57813
57810.4
57808.3
57807.9
57806.4
57805.2
57802.8
57802.6
57803.1
57802.6
57799.6
57798.8
57796.4
57796
57794.3
57794.4
57792.6
57791.7
57792.3
57791.8
57789.4
57788.7
57789.3
57788.8
57787.2
57784.4
57782.6
57781.6
57780.5
57780.3
57780.1
57778.9
57777.7
57776.6
57775.6
57775.4
57773.9
57771.9
57771.5
57769.7
57769.6
57769.5
57769.4
57767.8
57767.5
57767
57766.3
57766.9
57765.5
57765.4
57762.7
57761
57760.4
57761.1
57759.9
57759.3
57759.4
57758.6
57756.9
57756.4
57754.5
57751.5
57750.9
57750.9
57751.8
57752.2
57752
57751.8
57751.9
57750.1
57749.6
57748
57748.9
57750.6
57749.9
57749.4
57747.6
57748.3
57746.8
57747
57747.7
57747.9
57746.6
57745.9
57746.5
57746.2
57745.1
57745.8
57746.2
57745
57745.3
57743.5
57742.2
57742.3
57742.6
57742.2
57742.9
57742.7
57743.2
57742.1
57742
57744.3
57744.4
57744
57744.5
57743.7
57744.6
57744.1
57744.4
57744
57742.8
57743.2
57743.1
57742.3
57742
57741.9
57740.9
57742.1
57743.7
57742.3
57740.6
57740.2
57738.8
57740.5
57739.4
57739.3
57739.7
57740.2
57739.2
57738.7
57737.7
57738.3
57737.6
57738.1
57737
57736.9
57736.3
57737
57735.9
57735.1
57736.1
57735.8
57736.1
57735.1
57734
57736
57736.8
57736.3
57736.3
57736.4
57736.6
57735
57734.2
57734.8
57733.6
57734
57732.5
57734.3
57733.5
57734
57732.7
57732.1
57733.6
57733.9
57733.3
57733.4
57733.4
57733.2
57733.4
57733.7
57733.6
57734.4
57733
57732.8
57734.4
57735.1
57735.4
57734.4
57734.5
57734.6
57736.3
57735.9
57735
57736.2
57735.1
57735
57736
57737.6
57736
57737
57737.4
57737.9
57737.7
57736.2
57735.5
57735.2
57735.3
57736.6
57737.2
57738.9
57739
57738.8
57737.6
57736.2
57736
57736.6
57736.1
57737.1
57737.6
57738.2
57737.7
57739.5
57739.3
57740.7
57741
57742.5
57740.4
57741.6
57741.4
57741.8
57742.9
57743.9
57742.7
57744
57745.8
57745.6
57745.6
57746.4
57746.6
57746.4
57746
57747.6
57746.9
57746.4
57746.9
57747.8
57748.3
57751
57751.3
57750.3
57750.8
57750.5
57750.6
57751.1
57749.5
57750.9
57749.5
57750.4
57750.9
57751.6
57751.8
57751.8
57750.8
57752.6
57753
57752.1
57750.2
57751.2
57751.8
57752.6
57754
57753.3
57754.6
57754.2
57755.5
57754.8
57754.9
57755.4
57755.5
57755.6
57754.2
57754.5
57752.7
57753.3
57754.2
57753.8
57754.4
57754.2
57754
57755.3
57754.4
57755.5
57755.8
57754.6
57755.3
57756.2
57755.8
57755.6
57755.5
57754.8
57755.5
57755.2
57756.2
57756.1
57755
57754.2
57755.2
57755.1
57754.6
57754.7
57755.5
57756.5
57757
57756
57754.6
57754.3
57754.1
57754.4
57755.1
57755.9
57755.6
57755.6
57757.3
57757.8
57755.8
57756.8
57756
57756.9
57757.6
57758.3
57757.5
57757.7
57758.7
57757.9
57758.6
57758.4
57758.1
57757.1
57758.4
57758.9
57758.3
57759.1
57758.9
57757
57757.6
57758.5
57757.4
57756.5
57756.5
57757.2
57756.9
57757.4
57757.1
57758.2
57757.9
57757.2
57756
57756.4
57757.2
57757.1
57758.4
57757.4
57757.7
57759.8
57760.6
57760
57760.1
57757.9
57758.2
57757.5
57758.7
57759.7
57759.3
57758.9
57758.4
57759.6
57759.4
57760.6
57761.2
57761.5
57761.4
57760.2
57760.2
57759
58305.2
58303.5
58301.8
58300.5
58299
58298
58296.4
58294.7
58289.8
58288
58284.1
58281.8
58279.2
58275.6
58272
58268.7
58263.4
58260.1
58256
58251.2
58245.6
58240.2
58235.9
58231.1
58224.5
58218.3
58211.8
58205.3
58199.5
58194.3
58188.9
58181.3
58175.6
58169.2
58163.1
58155.4
58150.4
58142.9
58137.1
58129
58121.8
58114.6
58108.2
58103.4
58094.3
58087.7
58081.5
58074.7
58069.7
58063.8
58056
58050.8
58042.7
58038.1
58033.1
58026.4
58021.8
58016
58011.5
58005.4
58001.8
57996.7
57990.5
57984.9
57981.1
57975.1
57969.6
57965.2
57961.9
57957.2
57952.9
57950.1
57945.8
57941.4
57936.2
57931.5
57927.6
57922.6
57919.2
57914.8
57911.6
57909.4
57904.4
57901.3
57898.5
57895.1
57891.8
57888.3
57884
57880.7
57876.8
57874.4
57873.6
57870.6
57867
57863
57858.8
57856.4
57855.4
57853.4
57850.5
57849.1
57845.6
57842.5
57840.8
57839
57835.4
57833.3
57831.3
57831.6
57829.6
57827.2
57825.4
57821.8
57820.4
57818.5
57817.1
57814.9
57814.3
57811.9
57810.6
57809.8
57809.9
57808.1
57806.6
57804.6
57803.4
57802.1
57800.5
57800.5
57798
57796.3
57796.3
57794.3
57792.5
57791.1
57790
57787.1
57785.5
57785.5
57783.1
57783.7
57782.8
57780.6
57778.4
57777.6
57777.7
57774.7
57773.5
57773.5
57771.4
57771.2