/*--------------------------------*- C++ -*----------------------------------*\
| =========                 |                                                 |
| \\      /  F ield         | OpenFOAM: The Open Source CFD Toolbox           |
|  \\    /   O peration     | Version:  v2012                                 |
|   \\  /    A nd           | Website:  www.openfoam.com                      |
|    \\/     M anipulation  |                                                 |
\*---------------------------------------------------------------------------*/
FoamFile
{
    version     2.0;
    format      ascii;
    class       surfaceScalarField;
    location    "50";
    object      phi;
}
// * * * * * * * * * * * * * * * * * * * * * * * * * * * * * * * * * * * * * //

dimensions      [1 0 -1 0 0 0 0];
oriented        oriented;


internalField   nonuniform List<scalar> 
130432
(
10.1436
-10.7946
21.0519
-11.0396
32.4052
-11.5008
43.5191
-11.3017
54.2644
-10.9377
64.8615
-10.8287
74.7041
-10.2292
84.6462
-10.5728
95.4857
-11.0628
106.522
-11.1985
116.824
-10.9762
125.207
-8.81783
134.01
-9.03252
143.335
-9.50822
152.713
-9.59613
161.949
-9.54265
170.699
-8.9933
179.602
-9.11714
187.954
-8.56549
195.657
-7.99434
203.134
-7.68184
210.837
-8.01864
217.035
-6.59788
222.024
-5.49285
229.13
-7.58865
236.574
-7.89177
242.323
-6.12651
247.903
-5.96811
253.312
-5.73378
258.057
-5.00022
263.44
-5.66597
268.502
-5.39029
271.479
-3.38965
274.098
-3.01906
277.532
-3.70764
280.877
-3.54648
283.894
-3.21805
286.14
-2.49513
286.901
-1.14389
287.914
-1.27863
289.645
-1.94025
291.089
-1.62207
292.576
-1.65232
293.03
-0.631702
292.416
0.414171
291.798
0.388289
291.424
0.156865
291.207
0.0196459
290.96
0.0742236
290.416
0.394828
289.461
0.815295
288.241
1.11657
286.885
1.24615
284.968
1.85836
282.534
2.36733
279.891
2.5673
277.131
2.63314
274.898
2.03131
271.772
2.96098
268.828
2.89626
266.204
2.62642
263.209
3.04713
259.918
3.34683
256.725
3.24636
253.782
2.98952
250.939
2.8621
248.984
1.93342
246.266
2.62572
241.869
3.96135
237.88
3.937
234.041
3.79648
229.975
4.01131
226.612
3.33662
223.072
3.55968
219.42
3.64738
215.973
3.42549
212.342
3.57843
208.347
3.92241
204.285
3.95002
200.627
3.50546
196.79
3.62286
192.418
4.32237
188.225
4.16334
184.7
3.47935
181.442
3.21144
177.851
3.51183
173.956
3.83672
170.445
3.45763
167.215
3.17755
163.845
3.31407
160.535
3.21214
157.303
3.11377
153.547
3.63391
149.541
3.88685
145.935
3.46861
142.826
2.94717
139.843
2.88779
136.943
2.82343
134.022
2.85532
131.172
2.80465
128.841
2.30675
126.569
1.76698
124.051
2.46029
121.409
2.56103
117.438
3.05727
113.966
3.14671
111.511
2.35805
109.338
2.07626
106.817
2.42061
103.668
3.01187
100.701
2.22485
98.4198
1.96573
96.6257
1.68343
94.7141
1.75145
92.3235
1.80886
89.7167
2.13688
87.9584
1.54263
86.6852
1.13623
85.3191
1.21752
83.795
1.38745
81.8229
1.84249
79.2875
1.60725
76.887
1.9586
74.2693
2.32059
71.9589
2.16204
70.2243
1.65163
68.7496
1.43866
67.1912
1.54392
65.4223
1.73762
63.6977
1.70711
62.0519
1.57795
60.6195
1.34275
59.0782
1.43376
58.3213
0.632059
57.7519
0.402614
56.471
1.09705
54.8351
1.44834
53.1585
1.47811
51.007
1.68917
49.0914
1.69452
47.6916
1.20501
46.6446
0.902746
45.8328
0.696588
45.2195
0.51053
44.4094
0.70607
43.7947
0.473931
42.8132
0.816124
41.2412
1.38468
39.587
1.2001
37.724
1.6589
36.7562
0.768415
36.3864
0.148796
36.2256
-0.0757467
35.7324
0.265045
34.6543
0.865882
33.6535
0.790101
32.9154
0.545983
32.5378
-0.185274
31.7854
0.561988
30.7679
0.816855
29.7033
0.844621
28.2277
1.2011
26.4864
1.49008
25.2504
0.89298
24.9215
-0.153378
25.0577
-0.37634
25.6105
-0.716411
25.3534
0.140803
24.5564
0.403034
23.1411
1.23952
21.9849
1.00959
20.9872
0.666416
19.6843
0.62733
19.4327
0.147999
19.5374
-0.203592
19.2737
0.170949
19.0687
0.0913654
18.1499
0.599737
16.9809
0.974471
16.6991
0.15747
16.4455
0.0719239
15.8776
0.326103
15.9148
-0.44449
16.6551
-1.09594
16.6915
-0.3599
15.5733
0.788104
14.3802
0.893401
13.1984
0.860721
12.296
0.574423
11.9304
0.079105
11.6507
-0.0203571
11.5011
-0.121962
11.4296
-0.154376
11.3846
-0.149058
11.2108
0.00465532
11.0848
-0.0245393
10.4141
0.550094
9.10181
1.18366
8.16903
0.8879
7.35484
0.694447
7.32962
-0.0965462
7.20593
-0.0231791
7.73462
-0.680144
8.56302
-1.01912
7.70791
0.655343
6.76919
0.749174
6.63653
-0.0387928
6.49947
-0.0246488
6.3688
-0.0315226
5.87638
0.319533
6.16915
-0.43217
6.93629
-1.1679
6.72195
-0.16838
6.04688
0.425692
5.33127
0.524562
4.59906
0.521118
4.23384
0.153508
3.50029
0.494076
2.26676
0.932634
1.7585
0.225639
2.06437
-0.497092
1.65921
0.283473
1.06934
0.466436
1.23666
-0.244875
1.14313
0.0343168
0.816995
0.0984558
0.646612
0.12887
0.801413
-0.184658
0.859413
-0.0871038
1.2727
-0.443075
2.52846
-1.58286
2.75094
-0.389375
1.69978
0.776204
0.528451
1.06541
0.210221
0.258253
0.121138
0.0426707
-0.269449
0.346412
-0.201035
-0.110926
-0.125659
-0.117568
-0.296522
0.0991543
-0.272941
-0.0805397
-0.395768
-0.335531
-0.199277
-0.306089
0.546108
-0.844115
1.06993
-0.604564
0.852071
0.00178516
0.611132
0.0117623
0.539252
-0.0885065
0.657942
-0.28639
0.326688
0.199534
-1.07061
1.36425
-1.80211
0.608723
-1.64601
-0.32839
-1.51344
-0.298122
-1.14266
-0.65304
-1.68046
0.101272
-2.25595
-0.190076
-2.11966
-0.18205
-1.7564
-0.444298
-1.42585
-0.478788
-1.25769
-0.506536
-1.81945
0.316205
-1.91663
-0.0327259
-1.77677
-0.233124
-2.05325
0.195009
-2.14562
-0.034168
-2.35316
0.0843307
-2.42151
-0.100217
-2.5474
-0.120463
-2.29979
-0.0809301
-1.68444
-0.68712
-1.55947
-0.261242
-2.44444
0.320871
-3.52363
0.724201
-4.15636
0.440801
-4.18573
-0.123517
-3.96988
-0.347364
-3.2658
-0.816285
-2.44786
-0.936239
-2.07366
-0.515709
-2.07275
-0.224908
-2.50661
0.214742
-3.68457
0.695715
-4.48304
0.515772
-3.61317
-1.0505
-2.77354
-0.949203
-2.48232
-0.376522
-2.88351
0.356831
-3.14855
0.12172
-3.3558
0.0478795
-3.49743
-0.0259369
-2.92109
-0.758938
-2.5828
-0.51537
-2.88497
0.139222
-3.63508
0.58815
-3.91544
0.151856
-4.22634
0.198543
-4.62698
0.308064
-4.436
-0.287985
-4.43029
-0.108566
-4.91734
0.389528
-5.09736
0.0808716
-5.54265
0.354357
-5.42206
-0.312913
-4.30993
-1.20761
-3.6345
-0.796851
-3.84735
0.0610352
-4.2562
0.247021
-4.42069
-0.000314213
-4.00045
-0.577139
-3.42299
-0.710321
-2.43745
-1.13903
-2.06685
-0.547246
-2.2651
-0.0367441
-2.51351
0.0710764
-2.89379
0.237324
-3.38471
0.368276
-3.85616
0.351555
-4.11152
0.100958
-4.48091
0.174043
-4.85817
0.241015
-4.93499
-0.0447666
-4.9979
-0.0527841
-4.85845
-0.280221
-4.54822
-0.696106
-4.52162
-0.072905
-4.4037
-0.180414
-4.18009
-0.321452
-3.64018
-1.34079
-2.95788
-1.16714
-3.19927
-0.125824
-3.04671
-0.573545
-2.22252
-0.999904
-1.62329
-0.74536
-1.41748
-0.494142
-1.5518
-0.100092
-2.07321
-0.150524
-3.07414
0.548488
-4.24059
0.90943
-5.01438
0.603784
-5.24903
0.126894
-4.69621
-0.612546
-3.86094
-0.863478
-3.30357
-0.524223
-3.02564
-0.123015
-3.25436
0.290619
-3.34088
0.0289731
-2.72593
-0.722637
-1.63134
-1.19323
-1.39878
-0.367925
-1.7288
0.192798
-2.37161
0.491513
-3.05373
0.532156
-3.44858
0.246348
-3.45761
-0.157412
-3.36176
-0.260068
-2.97844
-0.590819
-2.78703
-0.374931
-3.35587
0.264578
-3.3451
-0.353025
-3.28439
-0.451566
-3.57993
0.00395912
-3.29374
-0.5595
-2.48264
-1.005
-1.84845
-0.871266
-1.5733
-0.681522
-1.2079
-0.566131
-1.02555
-0.31213
-1.01984
-0.0943278
-1.03901
-0.0345274
-1.32717
0.266182
-1.81879
-0.00431726
-2.12861
0.191474
-2.24555
0.0874392
-1.79816
-0.500936
-1.48894
-0.362996
-1.34246
-0.242022
-1.39335
-0.0631454
-1.35941
-0.14262
-1.75365
0.292438
-2.47956
0.643733
-2.26963
-0.281693
-2.22589
-0.14673
-2.39904
0.0691569
-1.49049
-0.944774
-0.770404
-0.747254
-1.21431
0.423386
-2.39069
0.612773
-2.45115
0.0451769
-1.78839
-0.675054
-1.135
-0.667053
-0.0423369
-1.03812
0.571557
-0.584466
0.595751
-0.120126
0.420018
0.0424223
0.19521
0.085727
0.152178
-0.0865212
-0.332889
0.327103
-0.98393
0.46865
-1.39536
0.259489
-1.70616
0.17557
-2.01637
0.167003
-2.1705
0.00384944
-1.61201
-0.669842
-1.33592
-0.410393
-1.37402
-0.0978258
-1.59724
0.0942366
-1.48489
-0.36598
-0.935386
-0.928353
-0.86716
-0.453811
-0.860473
-0.114653
-0.684319
-0.246526
-0.456307
-0.294058
-0.340299
-0.200808
-1.10954
0.640328
-1.65611
0.00900987
-1.04876
-0.716458
-0.392609
-0.762744
0.00263795
-0.447094
-0.253987
0.212261
-0.491167
0.0920177
-0.38595
-0.138482
-0.559442
0.167876
-0.459169
-0.109649
-0.244687
-0.225248
-0.0124103
-0.270975
-0.015611
-0.0473787
-0.299168
0.205286
-0.259986
-0.0800216
-0.479841
0.101224
-0.66576
-0.0516627
-0.603139
-0.32847
-0.293793
-0.551454
-0.0229628
-0.480081
0.0948669
-0.324535
-0.0826974
-0.048799
-0.277473
-0.0235399
-0.57588
0.098135
-1.28401
0.539037
-1.16785
-0.254327
-1.21001
-0.0076642
-1.23652
-0.000925422
-0.898562
-0.341486
-1.06702
0.151373
-1.10833
0.0506101
-0.77875
-0.318831
-0.181362
-0.584689
0.155441
-0.333709
-0.0762447
0.16048
-0.306433
0.2093
0.149743
-0.442564
0.72777
-0.583578
0.972374
-0.331037
0.446756
-0.13096
0.369841
-0.293764
0.748145
-0.586261
0.587416
-0.168232
-0.089371
-0.0738322
-0.106942
-0.059867
-0.173454
0.0264133
-0.192481
-0.0609191
-0.250067
0.00211587
-0.495967
0.17214
-0.765296
0.149146
-1.27561
0.41569
-1.41613
0.0407939
-0.754768
-0.761039
-0.22759
-0.635349
0.175778
-0.535468
0.868143
-0.864138
1.50473
-0.845753
1.45371
-0.13245
1.21766
0.00390439
1.25194
-0.346171
0.616749
0.255075
0.0773158
0.360459
-0.00613507
-0.0139639
-0.0187067
-0.0654342
0.220318
-0.352139
0.127416
-0.0965116
-0.209664
-0.367949
-1.00778
0.202187
-2.00764
0.643449
-2.06107
-0.209459
-1.52553
-0.757704
-1.26009
-0.45231
-1.32391
-0.103722
-0.486292
-1.01784
0.803196
-1.49488
0.88845
-0.209814
0.52784
-0.0168113
0.88677
-0.784773
1.09652
-0.460059
0.479202
0.00598602
-0.257135
-0.166683
-0.913074
0.522199
-1.32837
0.296117
-1.18617
-0.220905
-0.556312
-0.686912
0.567379
-1.19073
1.63406
-1.12352
2.01491
-0.444967
0.92621
0.934734
0.1182
0.662352
0.0549253
-0.0639242
-0.622202
0.555725
-0.904307
0.201582
-0.270489
-0.725582
0.534441
-0.88668
1.19745
-0.754411
1.26648
-0.183593
1.12225
12.1595
-22.8051
21.8537
-20.7893
30.5856
-20.4
39.9853
-20.8983
50.097
-21.3249
61.2309
-22.2021
73.1302
-22.4783
84.8936
-22.5267
95.0137
-21.3356
103.912
-20.037
114.068
-20.5053
124.24
-19.0237
134.852
-19.8523
144.706
-19.4725
154.25
-19.2129
163.642
-19.1377
170.687
-16.245
176.963
-15.5438
184.075
-15.7994
192.621
-16.5483
201.274
-16.1827
209.021
-15.9404
216.571
-14.4369
223.738
-12.9136
230.199
-14.4076
235.529
-13.6287
241.464
-12.7377
248.294
-13.1016
253.112
-10.8225
256.29
-8.43531
259.879
-9.49084
264.118
-9.94079
268.999
-8.60858
273.945
-8.17374
277.371
-7.35157
280.116
-6.44323
281.791
-5.04325
283.611
-4.44179
286.174
-3.93128
288.28
-3.5337
289.982
-3.7713
290.252
-1.99299
289.919
-1.45612
289.706
-0.573878
290.515
-0.55606
292.046
-1.30653
291.873
0.174158
291.512
0.21774
290.83
0.592762
288.763
2.36862
287.816
1.76818
287.373
1.48254
285.948
2.69095
283.458
4.26651
280.313
5.47728
277.247
5.58938
273.641
6.19157
271.299
4.29253
270.653
3.65847
269.399
4.20798
266.751
5.33838
263.556
6.2151
259.266
7.69315
254.847
7.73418
251.51
6.3667
247.666
6.72849
244.233
5.27233
242.388
4.49297
240.351
6.09744
236.524
7.79343
232.029
8.3346
229.46
6.69266
228.094
4.81278
224.124
7.5174
219.334
8.45588
214.468
8.2734
209.022
9.03038
205.211
7.75475
202.26
6.85246
198.315
7.3747
194.912
6.82318
192.343
6.8404
188.912
7.58997
184.379
7.98515
180.383
7.17641
177.497
6.44036
174.468
6.88839
170.357
7.58754
165.079
8.43902
160.833
7.50227
158.081
5.88657
154.874
6.25998
152.135
6.38011
149.688
6.14178
146.397
6.60985
143.697
5.53679
141.487
4.98587
138.026
6.20372
133.749
7.08685
129.663
6.84279
126.45
5.57842
124.502
4.19695
121.325
5.59518
118.506
5.31767
117.007
4.60473
115.371
4.72982
111.858
5.76445
107.601
6.271
103.921
6.01038
101.158
5.82083
99.9114
3.59982
98.7576
3.04303
95.6139
4.68693
92.3948
4.93428
90.6428
3.54384
89.7973
2.80072
89.2723
1.92674
87.693
2.60799
84.5419
4.25478
80.9859
4.77112
78.9329
3.90109
77.7063
3.16632
76.3415
3.27312
75.0829
3.47851
73.5771
3.64535
71.876
3.30232
69.4703
3.83336
66.0877
4.87648
64.9424
2.9423
64.5823
2.13193
62.4272
3.69782
60.5532
3.16649
59.3137
2.56597
58.2007
1.53918
56.9892
1.4787
55.7567
2.16135
53.3928
3.64342
51.3375
3.3407
51.3247
1.63672
50.9231
1.94115
49.3378
2.67058
47.932
2.20678
45.8983
2.62758
43.927
2.37014
42.5321
1.92058
40.9354
1.95878
39.814
1.80623
39.2567
1.73212
39.091
1.18028
39.1296
1.32447
38.7586
0.851097
37.5339
1.14352
36.6826
0.574456
35.9198
0.83132
35.0143
1.52756
33.3975
2.22807
32.1014
1.7548
31.9697
0.111397
30.494
1.92252
29.1338
2.02447
27.647
2.19517
26.9381
1.63473
26.7117
1.48581
25.7978
1.70756
25.3957
0.00469447
25.2014
-0.331577
24.8928
-0.539218
23.6374
1.31256
23.3092
0.700189
22.6615
1.82801
20.84
2.80556
20.5365
1.02252
21.0929
-0.034729
21.5111
-0.313084
20.5746
0.690387
18.6321
2.03415
17.8402
0.798225
18.2399
0.132687
18.5476
0.580847
17.5273
1.04346
15.4791
2.00411
14.406
1.26235
14.3525
-0.503198
14.407
-1.26104
14.4846
-0.638201
14.9829
0.0872433
15.5315
0.137744
15.458
0.618648
15.2203
0.514868
14.0273
0.89804
12.5495
1.20836
12.076
0.153636
10.9168
0.804225
10.0623
0.526744
9.63451
0.280422
8.84465
0.66605
8.95297
0.337776
9.9257
0.222238
10.0269
0.876078
8.74954
1.91776
8.17994
0.385589
7.0243
1.03785
6.15079
0.0742918
6.72194
-1.6526
7.79703
-0.786581
8.31841
0.0333151
7.32884
0.777674
5.58551
1.57465
4.67757
0.785224
5.04852
-0.171432
5.99774
-1.47977
6.64507
-1.93211
7.29452
-1.08246
8.2153
-0.606286
7.94293
0.620982
5.71387
2.6214
3.40819
2.27369
2.40279
1.31022
2.79067
0.341517
3.07459
-0.26239
2.96706
-0.51162
2.33971
0.794985
1.29785
1.49393
0.627298
0.331043
-0.026671
0.583713
1.32357
-1.17377
2.60113
-1.22503
2.00195
0.418616
1.00984
0.929453
0.414813
0.235899
0.676084
-1.34054
0.252638
0.0301552
0.876847
0.00244182
2.00635
-0.257857
1.51866
0.691393
0.628469
0.915331
0.216787
0.748364
-0.619539
0.705657
-1.74852
0.998118
-2.25584
0.562099
-1.24231
-1.16387
-0.453392
-0.932153
-1.55258
0.775076
-1.64351
-0.815164
-0.305081
-1.91597
1.5525
-1.83097
2.09726
-0.590987
0.332218
1.5622
-0.802563
0.753123
-0.668528
-0.0972349
-0.326996
0.703929
0.0927654
-0.0889708
-0.601769
0.242236
-2.2484
1.24258
-2.27432
-0.70036
-1.22732
-0.872281
-0.39357
-0.696606
-0.297821
-0.211157
-0.936399
0.178652
-1.79636
0.346296
-1.07911
-1.28582
-0.263243
-0.543017
-1.59247
1.19655
-3.20658
1.31197
-3.02299
-0.0101357
-2.28367
-0.747692
-3.13805
0.96029
-3.59179
0.243395
-2.70798
-1.19417
-1.56574
-1.3012
-1.84883
-0.397304
-3.34438
1.1976
-3.00778
-0.153891
-2.76637
0.369305
-4.05015
1.59952
-3.66278
-0.619873
-3.38881
-0.767672
-4.16325
-0.22781
-4.12747
-1.03292
-3.08005
-1.56638
-2.38205
-0.980721
-2.93243
0.598875
-2.90172
0.652256
-2.18521
-0.352442
-1.88875
-1.4213
-2.88476
-0.0627699
-3.42452
0.111193
-2.82928
-0.402589
-2.31283
-0.510628
-2.7769
0.424816
-1.86807
-1.01154
-0.656118
-2.16485
-1.90914
0.670597
-3.29342
1.43895
-2.89063
0.10812
-2.67435
-0.178581
-3.56194
1.0146
-4.0611
0.707523
-4.64105
0.229073
-5.62108
0.829788
-5.44756
0.12852
-5.09816
-0.35273
-5.71599
0.924034
-4.79413
-1.1564
-3.86091
-2.14585
-4.48159
-0.226044
-4.38415
-0.133577
-3.89458
-0.365696
-4.17125
0.188224
-3.78433
-1.04349
-3.76414
-0.842114
-3.89947
-1.07847
-4.14056
-0.392178
-3.47314
-0.753319
-2.82962
-0.681346
-4.1096
1.43536
-5.0377
1.22882
-4.71031
-0.014361
-3.27446
-1.38137
-2.04306
-1.12218
-2.40128
0.401955
-3.91801
1.33947
-5.41856
1.35946
-4.56973
-1.31946
-3.86212
-0.966603
-5.01893
1.10731
-5.83561
0.662067
-6.404
0.308836
-5.30389
-2.24398
-3.03401
-3.42977
-1.6818
-1.67548
-1.09612
-1.34713
-1.72087
-0.50839
-2.07368
-0.470826
-1.92841
-0.581556
-2.85607
0.819695
-2.47398
-0.55768
-2.0395
-0.0359133
-3.44986
2.21497
-3.46323
0.471003
-3.51413
0.0694133
-4.76589
0.537424
-5.0696
-0.566469
-4.25964
-1.3326
-2.61104
-1.63811
-1.11735
-1.35392
-1.57158
0.459
-2.17567
-0.147503
-1.61423
-1.89587
-2.34657
0.242041
-3.22141
0.915843
-2.64681
-0.215317
-2.37277
0.0224156
-3.27665
0.928386
-3.41303
-0.170376
-4.06092
0.203608
-5.32974
0.595437
-4.77505
-1.01834
-3.72379
-0.862517
-2.95918
-0.943066
-2.50015
-1.03623
-2.89414
0.229645
-2.39523
-1.2373
-1.63429
-1.89011
-1.62849
-0.990993
-0.541569
-1.86187
0.278392
-1.48697
-0.489162
0.401807
-2.11996
1.46585
-3.39141
1.17526
-3.38198
0.20348
-1.6992
-1.52347
-0.708285
-0.716201
-1.34914
0.737724
-1.31461
-0.495416
-1.32593
-0.452085
-1.53882
-0.00662204
-2.44688
0.787534
-3.18359
0.482213
-3.08398
0.112648
-2.28455
-0.134757
-1.02542
-1.49277
-0.142259
-1.05208
-0.137961
0.1171
-1.11733
0.00188501
-2.42404
0.55127
-2.70763
0.688746
-1.76877
-0.0394681
-1.0553
-0.615661
-1.54852
-0.174661
-2.076
-0.12012
0.0936674
-3.29726
1.60696
-2.43697
1.06237
0.33587
0.745729
0.228344
-0.210748
0.909572
-0.929818
0.437898
-0.599127
-0.160151
-0.0200041
-0.131643
-0.714677
0.832621
-2.08024
1.41919
-2.57341
0.557343
-2.14061
-0.389502
-2.38155
-0.562104
-3.51632
0.640001
-3.66309
-0.0474755
-3.0761
-0.576884
-2.00595
-1.3452
-0.629279
-2.55466
0.708091
-2.06286
1.70405
-1.11756
1.37704
0.0065785
-0.223827
1.22426
-1.73223
1.26872
-1.84196
0.719451
-0.471877
-1.46907
0.262504
-1.61245
-0.610588
0.0674774
-0.930542
-0.19326
-0.333993
-0.388665
0.688217
-0.74732
0.276065
0.307299
-1.08465
1.51056
-1.33232
0.141483
-2.06508
0.449214
-2.27506
-0.0488971
-1.40253
-0.934387
-0.0587427
-1.14126
0.359916
-0.653743
-0.531518
0.964947
-0.184097
-0.0901767
0.408376
-1.03201
0.212829
-0.51137
-0.550259
0.132266
-0.294106
-0.685008
-0.276062
-0.172214
-1.02822
0.613942
0.000454922
-1.06494
0.935599
-0.5249
1.28894
-0.628862
0.969284
0.243767
-0.174272
1.10778
-0.926708
0.328618
-1.12275
0.359272
-0.927875
-0.134571
-0.980461
-0.213454
-1.28289
-0.250366
-0.375536
-1.21698
0.494876
-0.69053
-0.274511
1.00792
-1.66928
0.980797
-2.80111
0.541876
-2.45651
-0.650869
-0.972813
-1.57976
0.4436
-1.72083
0.82365
-0.997374
1.83712
-1.12604
2.72915
-0.989709
1.6671
0.945736
0.125559
1.55206
-0.184257
0.440259
-0.826715
0.628585
-0.0365173
-0.73559
0.783756
-0.74698
-0.131194
1.28835
0.25824
-0.410152
0.480211
-1.0364
-0.303071
0.0930556
-0.539459
-0.372122
-0.826601
-0.722661
0.489729
-2.27829
1.39663
-1.10662
0.333992
0.980333
1.27054
-1.31291
1.62444
-0.239252
0.335647
1.51558
-0.542009
0.751074
-2.01434
1.32916
-2.96921
0.538378
-2.49783
-0.677778
-1.7011
-1.39306
-0.79593
-1.00858
0.190828
-0.753708
0.978046
-1.25609
0.444798
-0.44175
-1.05372
0.88352
-2.04741
0.754598
-2.34614
-0.856786
-2.16104
-1.81627
-1.61022
-0.920302
-0.694732
-0.187204
0.391703
-1.63807
1.08639
-1.12923
1.49384
-0.29973
1.90193
-0.433708
1.68198
0.703273
0.913711
0.99212
-0.64558
1.23971
-2.12981
0.808501
-1.53667
-1.64015
-0.417666
-2.21126
1.05137
-2.0526
2.15743
-0.304121
2.59633
0.112748
2.16774
0.274492
0.42139
2.26894
0.207759
0.288476
0.358413
-0.935606
-0.78487
0.151568
-1.33665
-0.300411
-0.861382
-0.735245
0.177834
11.7815
-34.301
21.6475
-30.7913
31.1017
-29.9352
40.6591
-30.576
50.5469
-31.321
61.2149
-33.0618
73.0379
-34.4428
84.4419
-34.0813
94.5883
-31.4125
103.622
-28.9685
113.403
-29.4971
123.867
-29.3092
134.871
-31.0853
144.918
-29.6163
154.15
-28.3636
162.899
-27.9022
170.156
-23.5379
176.604
-22.075
183.506
-22.7525
191.978
-24.8911
200.386
-24.3797
207.948
-23.5111
216.018
-22.5891
224.148
-20.9247
230.122
-20.5709
234.394
-18.2359
240.072
-18.9983
246.368
-19.7574
251.283
-15.9091
255.163
-12.5028
258.475
-12.92
262.417
-13.844
267.862
-13.7711
272.745
-13.1351
275.932
-10.4856
278.75
-9.26093
280.448
-6.77929
282.407
-6.49888
285.626
-7.15102
287.509
-5.48204
288.566
-4.87454
288.953
-2.48453
288.546
-1.15147
288.656
-0.69378
290.142
-2.03045
291.854
-2.99346
291.52
0.429563
290.71
0.875046
289.776
1.18881
287.822
4.17943
286.587
2.86905
285.841
2.25291
284.471
3.97809
282.2
6.52048
278.988
8.62634
275.867
8.68017
272.534
9.58892
270.237
6.94209
269.873
4.50962
268.523
5.62286
265.208
8.68996
261.858
9.79705
257.775
11.8798
253.894
11.7161
250.641
9.76206
246.438
11.0745
242.607
9.29181
240.29
6.77424
238.544
8.01971
235.257
11.1811
231.361
12.3683
228.749
9.43869
227.03
6.92308
223.124
11.5953
218.141
13.4377
213.04
13.4128
207.813
14.2984
204.307
11.3778
201.328
9.89558
197.304
11.431
193.884
10.3307
191.22
9.46226
188.064
10.7316
183.806
12.3152
179.655
11.3355
176.568
9.50105
173.409
10.0401
169.006
12.0072
163.823
13.6481
159.909
11.3853
157.133
8.69744
154.022
9.30222
151.273
8.8482
148.969
8.31237
145.949
9.58686
143.064
8.60564
140.572
7.44428
137.125
9.53769
132.704
11.4138
128.787
10.791
125.68
8.63879
123.549
6.66538
120.473
8.66207
117.509
8.306
115.999
6.4345
114.145
6.41052
110.694
9.1603
106.692
10.1503
103.09
9.53337
100.543
8.35315
99.4004
5.26415
97.798
4.47929
95.0146
7.48733
92.3874
7.53884
90.7288
5.28033
89.6171
4.04379
88.7679
2.71957
86.9203
4.40774
83.8104
7.33022
80.5694
7.93677
78.3447
5.97801
76.8607
4.84193
75.2621
4.85005
74.2182
4.70301
72.8854
5.13189
71.2129
5.07246
68.9634
6.12447
65.8909
8.0269
64.451
4.28381
63.9943
2.60194
62.2914
5.44775
60.6851
4.76134
59.3579
3.75914
57.6255
3.22207
55.8224
3.18447
54.7187
3.21086
52.7558
5.45668
50.991
4.89066
50.8184
1.43391
50.769
1.84121
49.5881
3.8329
47.7864
3.8976
45.372
4.86478
43.2867
4.29949
42.1531
3.08067
40.818
3.32747
39.8516
2.71297
39.3895
2.1218
38.8227
1.65033
38.9666
0.973237
38.9566
0.871787
37.64
2.40933
36.5418
1.61435
35.6593
1.55352
34.839
2.21297
33.2281
3.64675
31.5717
3.2036
30.9111
1.0471
29.6421
3.10149
28.6931
2.80534
27.2703
3.37647
26.6217
2.24111
27.018
1.21997
26.6098
2.20118
26.0646
1.02981
25.279
0.62822
24.3521
0.382937
22.9109
2.68245
22.2142
1.35367
21.8937
2.14651
20.6848
4.04332
20.4787
1.54596
21.3997
-0.328888
21.6193
-0.524935
20.5295
1.74858
18.9531
3.572
18.0842
1.57035
17.9543
0.132233
18.2678
0.223235
17.6523
1.58198
16.0612
3.55711
14.966
2.26608
14.3399
0.145956
13.3806
-0.124271
13.0827
-0.415774
14.2339
-1.16843
15.0955
-0.738398
15.0531
0.559154
14.9942
0.364843
14.0765
1.67182
12.7316
2.42634
12.0494
0.615015
10.8259
1.77457
9.87886
1.23316
9.33511
0.637177
8.82553
0.993953
9.22402
-0.174117
10.028
-0.702693
9.98581
0.886375
8.97347
2.90744
8.24654
1.04063
7.40663
1.92747
6.29541
1.11781
6.07739
-1.57489
7.48768
-2.19008
8.26984
-0.804863
7.44708
1.54841
6.01063
2.91929
5.29635
1.33703
6.08876
-0.956325
6.22284
-1.63065
5.93536
-1.23811
6.52401
-1.42224
7.34742
-1.26583
7.42222
0.421127
5.86985
3.90105
3.91665
4.04195
3.1003
1.96671
3.59841
-0.190731
3.43437
-0.139761
2.56661
0.252537
2.1801
1.1396
1.34411
2.1894
0.443306
1.11945
0.135898
0.900356
1.30858
-2.35172
2.59809
-2.37336
2.28175
0.834989
1.34
1.92942
0.334076
1.35439
-0.510064
0.225762
-0.663472
0.279921
0.769409
-1.19711
2.03719
-1.56843
1.45945
1.23293
0.492578
1.87174
0.230548
1.04953
-0.677375
1.63115
-1.85784
2.0846
-2.18254
0.881951
-1.16057
-2.13738
-0.286165
-1.5435
-1.14151
1.53943
-1.61976
-0.430878
-0.934022
-2.76991
0.873509
-3.82543
1.62139
-1.20422
0.334046
2.8464
-0.858888
1.90361
-0.834673
0.0248821
-0.0757817
0.0142004
0.386132
-0.459442
0.0164707
0.623996
-1.26395
2.43566
-1.93022
-0.126144
-1.43335
-1.32521
-0.690771
-0.845684
-0.815685
-0.00749959
-1.24599
0.6973
-1.98437
1.20359
-1.60433
-1.32705
-0.708739
-1.52974
-1.42281
1.90255
-2.81269
2.67284
-2.92186
0.0348145
-2.54106
-1.22942
-2.77166
1.10282
-2.88176
0.318521
-2.58366
-1.3305
-2.21047
-1.70195
-2.68052
0.111793
-3.80898
2.26657
-3.05015
-0.81044
-2.31149
-0.302463
-3.10751
2.40501
-3.00478
-0.715378
-3.02754
-0.749481
-3.67293
0.441615
-4.09769
-0.648982
-3.75824
-1.82508
-3.23121
-1.32475
-3.16535
0.5495
-2.76097
0.00166008
-2.24705
-0.968041
-2.18319
-1.67601
-2.83213
0.483906
-3.27355
0.498194
-2.84136
-0.801323
-2.40675
-1.17605
-2.47977
0.384629
-1.71167
-1.97683
-0.960975
-2.5542
-2.09035
2.08829
-3.22106
2.64381
-2.84368
-0.367831
-2.91138
-0.247533
-3.70211
1.72256
-3.87836
0.835993
-4.20425
0.489179
-4.91262
1.4287
-4.77963
0.0290426
-4.61886
-0.421827
-4.82894
1.21222
-4.3787
-1.43437
-4.57266
-1.93372
-5.11479
0.332347
-4.45723
-0.765693
-3.62282
-1.25534
-3.75649
0.244782
-3.62911
-1.22613
-3.86621
-0.62931
-4.44737
-0.615209
-4.89165
-0.0377154
-4.27793
-1.46943
-3.66143
-1.37743
-4.42751
2.09992
-4.76953
1.48536
-4.29326
-0.530652
-3.17908
-2.38619
-1.96503
-2.10044
-1.9503
0.438798
-3.16888
2.53435
-4.49242
2.6083
-4.27556
-1.60552
-4.34844
-0.351616
-5.17456
1.9861
-5.42527
0.902694
-5.77153
0.621515
-5.1258
-2.57927
-3.66329
-4.68551
-2.20025
-3.11536
-1.80256
-1.71962
-2.45566
0.150576
-2.54103
-0.386177
-2.28616
-0.708274
-3.04332
1.66862
-2.72734
-0.453325
-2.31751
-0.467646
-3.15947
2.99264
-2.98827
0.393566
-2.99024
0.0825215
-4.08233
1.71711
-4.39212
-0.244966
-3.59558
-2.11018
-2.34807
-2.98438
-0.925451
-2.84835
-1.26451
0.695627
-2.00491
0.617091
-1.92162
-1.73212
-2.6986
1.00893
-3.38041
1.54913
-2.86157
-0.876791
-2.55815
-0.573971
-3.05114
1.36491
-3.30436
-0.261766
-3.87315
0.647188
-5.00495
1.55594
-4.50592
-1.73206
-3.41758
-2.15469
-3.03653
-1.05038
-2.78435
-1.25666
-2.78781
0.160755
-2.22233
-1.73168
-1.45311
-2.77537
-1.47791
-1.01734
-0.942043
-2.34319
-0.411444
-1.87659
-0.925892
0.923348
-2.15757
2.67445
-3.1461
2.07532
-3.17439
0.109931
-1.97685
-2.839
-0.951091
-1.80685
-1.18572
0.979797
-1.44555
-0.298941
-1.6332
-0.0879166
-2.12706
0.288074
-2.45749
1.18707
-2.71462
0.90699
-2.51235
-0.0854149
-1.68614
-1.17551
-0.982061
-2.15489
-0.191042
-1.87783
-0.0598481
-0.108505
-1.59983
1.48682
-2.91576
1.88476
-2.59334
0.487299
-1.30455
-0.874608
-0.856899
-1.02026
-1.44802
0.503571
-1.80678
0.300382
-0.148894
-4.82996
0.849314
-3.6781
0.370764
0.652599
0.13578
0.451854
-0.614175
1.65026
-0.93303
0.794448
-0.392349
-0.650248
-0.146398
-0.6505
-0.786069
1.33556
-1.82824
2.34072
-2.36149
1.02536
-2.43721
-0.632713
-2.58731
-0.464567
-3.15954
1.12413
-2.85238
-0.419702
-2.12812
-1.3714
-1.58722
-2.0795
-0.741942
-3.46884
0.468374
-3.34899
1.4163
-2.32173
1.22915
0.253774
-0.227293
2.7682
-1.69451
2.76337
-1.47756
0.543686
-0.251709
-2.38895
-0.0111207
-1.66935
-0.884511
0.959836
-0.827137
-0.184754
-0.0132126
-1.14677
0.387983
-0.914102
-0.373541
1.1709
-1.48132
2.64063
-1.54289
0.218205
-1.68797
0.778448
-1.93648
0.248127
-1.41149
-1.42996
-0.207017
-2.26427
0.00511535
-0.989963
-0.586263
1.59378
-0.25186
-0.00558694
-0.184869
-0.958242
-0.436194
-0.29585
-0.687335
0.402986
-0.423505
-1.00191
-0.367701
-0.254464
-0.867838
1.11547
0.354191
-2.22406
1.34739
-1.549
1.34608
-0.738513
1.13408
0.350251
0.32203
1.86347
-0.193259
0.907878
-0.291044
0.557513
-0.569879
0.1732
-0.930229
0.189766
-1.27896
0.149885
-0.665457
-1.75277
0.148321
-1.3649
-0.745309
1.93433
-2.1703
2.433
-2.85626
1.39919
-2.27251
-1.11268
-0.72165
-2.79411
0.601628
-2.81575
0.818192
-1.09951
1.60356
-1.53854
2.662
-1.52332
1.89198
1.79667
0.633569
2.85309
0.25801
1.01183
-0.273699
1.15831
0.348956
-1.37089
0.925607
-1.19309
0.404168
1.71518
0.701287
-0.735981
0.155211
-0.555592
-0.811702
0.884022
-0.798609
-0.513971
-0.65191
-0.744473
0.367978
-3.12622
0.903203
-1.35498
0.208372
1.75348
0.813707
-1.65817
1.04855
-0.372822
0.0636577
2.5989
-0.907363
1.77515
-2.28758
2.68037
-3.0688
1.3257
-2.50267
-1.05353
-1.78595
-1.4887
-0.975717
-1.86877
0.437456
-2.02975
1.2252
-2.08882
0.714537
-0.154751
-0.422956
1.90339
-0.955013
1.2435
-1.81848
0.0205446
-2.45415
-1.2109
-1.48896
-1.67951
-0.998056
-1.01066
-0.406671
-2.35072
0.32874
-1.99393
0.882202
-0.823022
1.29171
-0.761485
1.31448
0.655076
0.812708
1.38813
-0.39012
2.42284
-1.74397
2.20365
-1.65807
-1.42928
-1.22467
-2.5808
-0.133785
-3.11236
1.48679
-1.98306
2.21986
-0.724598
1.60221
0.765751
0.362651
3.34299
0.520522
0.115524
0.417854
-0.916873
-0.707681
1.24234
-1.51981
0.407441
-1.37762
-1.00487
-1.28924
11.0653
-45.7072
21.5101
-41.4774
32.2719
-40.8097
42.5772
-41.0243
52.4449
-41.3909
62.5566
-43.2108
73.1992
-44.939
83.6869
-44.1525
94.1922
-42.0093
104.503
-39.4153
114.058
-39.463
124.036
-39.4698
134.449
-41.5123
144.27
-39.3755
153.333
-37.217
161.571
-36.1793
169.537
-31.5979
177.43
-29.9049
184.945
-30.0819
192.737
-32.7764
200.369
-32.2879
207.642
-30.7669
215.324
-30.245
222.719
-28.5849
228.809
-26.5869
233.758
-23.1112
239.161
-24.3478
244.419
-24.9367
249.589
-21.0342
254.775
-17.6273
258.696
-16.8641
262.754
-17.868
267.672
-18.1707
271.534
-17.0962
274.229
-13.437
277.056
-12.1104
279.445
-9.20661
281.958
-8.96918
285.042
-10.004
286.382
-6.76318
286.891
-5.4291
287.883
-3.42266
288.381
-1.55368
289.07
-1.49695
290.218
-3.33892
290.781
-3.83274
290.376
0.724572
289.389
1.80525
288.328
1.87116
287.149
5.39762
285.982
4.43809
284.32
4.12629
282.749
5.64888
280.877
8.39014
278.207
11.3515
275.671
11.3638
273.223
12.2857
270.925
9.57499
268.902
6.33372
266.563
7.93737
263.177
12.112
259.766
13.1315
256.489
15.1665
253.328
14.8523
250.027
13.0979
246.058
15.1422
242.435
13.0528
239.329
10.2219
236.795
10.8266
234.148
13.927
231.187
15.3511
227.855
12.9565
224.563
10.3246
220.545
15.6299
216.119
17.9423
211.828
17.7375
207.791
18.4327
204.23
15.0458
200.558
13.6515
196.723
15.3707
193.231
14.067
189.716
13.1912
186.344
14.3117
182.607
16.061
178.609
15.39
175.19
13.0631
171.644
13.5672
167.476
16.2219
163.468
17.8372
160.03
15.028
156.76
12.0385
153.831
12.252
150.887
11.7071
147.828
11.4034
144.918
12.6661
141.622
12.0794
138.461
10.64
135.572
12.6385
131.931
15.1107
128.634
14.0532
125.855
11.3759
122.812
9.1947
119.945
11.4316
117.095
10.9976
114.602
8.99527
111.752
9.02668
108.662
12.2835
106.179
13.0147
103.408
12.2876
100.916
10.4265
99.161
7.07871
96.654
6.66511
94.2675
9.70027
92.8917
9.11934
91.4819
7.12189
89.0355
6.52793
87.0959
4.68669
85.0292
6.47698
82.8427
9.58934
80.9719
9.90275
78.814
7.93757
77.003
6.5697
74.6368
6.60647
72.9495
6.2667
71.1424
6.84625
69.3087
7.05196
67.7416
7.94811
65.8235
10.084
64.1686
6.07769
63.0261
3.73714
61.7763
6.67827
60.4036
6.02584
58.9229
5.28284
56.9492
4.88809
55.0238
4.88669
53.7966
4.05137
52.5387
6.57191
51.3121
6.09201
50.3203
2.45104
49.6195
2.55624
48.6617
4.90243
46.8223
5.67512
45.0616
6.60755
43.8138
5.45598
42.8308
3.64715