/*--------------------------------*- C++ -*----------------------------------*\
| =========                 |                                                 |
| \\      /  F ield         | OpenFOAM: The Open Source CFD Toolbox           |
|  \\    /   O peration     | Version:  v2012                                 |
|   \\  /    A nd           | Website:  www.openfoam.com                      |
|    \\/     M anipulation  |                                                 |
\*---------------------------------------------------------------------------*/
FoamFile
{
    version     2.0;
    format      ascii;
    class       volScalarField;
    location    "50";
    object      T;
}
// * * * * * * * * * * * * * * * * * * * * * * * * * * * * * * * * * * * * * //

dimensions      [0 0 0 1 0 0 0];


internalField   nonuniform List<scalar> 
65536
(
299.537
299.461
299.447
299.445
299.458
299.486
299.62
299.568
299.529
299.537
299.589
299.735
299.742
299.629
299.722
299.681
299.546
299.528
299.529
299.544
299.664
299.625
299.743
299.717
299.588
299.574
299.639
299.528
299.497
299.484
299.479
299.485
299.501
299.596
299.501
299.484
299.475
299.477
299.488
299.47
299.458
299.449
299.444
299.441
299.44
299.442
299.438
299.432
299.431
299.422
299.415
299.408
299.406
299.405
299.409
299.417
299.431
299.452
299.55
299.454
299.425
299.409
299.399
299.392
299.391
299.397
299.408
299.433
299.525
299.471
299.478
299.61
299.597
299.454
299.428
299.413
299.407
299.407
299.429
299.46
299.598
299.588
299.457
299.435
299.423
299.418
299.411
299.41
299.412
299.422
299.439
299.465
299.621
299.638
299.516
299.558
299.428
299.398
299.381
299.375
299.385
299.432
299.419
299.438
299.513
299.582
299.455
299.43
299.425
299.441
299.503
299.578
299.467
299.464
299.513
299.622
299.585
299.443
299.429
299.441
299.476
299.579
299.699
299.643
299.494
299.468
299.464
299.479
299.614
299.597
299.448
299.419
299.406
299.4
299.394
299.396
299.395
299.406
299.474
299.397
299.379
299.372
299.369
299.371
299.374
299.383
299.398
299.42
299.54
299.571
299.433
299.407
299.39
299.376
299.37
299.373
299.387
299.461
299.416
299.425
299.456
299.612
299.625
299.491
299.476
299.464
299.553
299.496
299.58
299.648
299.557
299.628
299.521
299.456
299.426
299.414
299.421
299.518
299.563
299.446
299.436
299.444
299.464
299.57
299.526
299.647
299.632
299.476
299.438
299.408
299.39
299.384
299.376
299.378
299.387
299.405
299.434
299.58
299.581
299.442
299.419
299.418
299.424
299.447
299.594
299.599
299.459
299.436
299.435
299.453
299.591
299.672
299.667
299.62
299.469
299.445
299.434
299.436
299.514
299.421
299.402
299.384
299.369
299.363
299.367
299.47
299.494
299.359
299.339
299.335
299.36
299.375
299.509
299.525
299.392
299.37
299.357
299.353
299.359
299.366
299.39
299.482
299.447
299.465
299.633
299.696
299.631
299.466
299.445
299.451
299.592
299.596
299.462
299.454
299.515
299.604
299.52
299.441
299.418
299.42
299.441
299.527
299.417
299.401
299.4
299.453
299.41
299.42
299.546
299.565
299.452
299.462
299.537
299.595
299.485
299.53
299.421
299.418
299.441
299.596
299.621
299.513
299.587
299.613
299.485
299.471
299.486
299.63
299.63
299.503
299.547
299.418
299.392
299.374
299.363
299.359
299.352
299.349
299.345
299.347
299.346
299.349
299.363
299.447
299.359
299.348
299.344
299.344
299.344
299.348
299.349
299.361
299.374
299.395
299.501
299.417
299.416
299.44
299.578
299.564
299.432
299.418
299.421
299.511
299.419
299.384
299.375
299.392
299.451
299.567
299.598
299.478
299.434
299.427
299.438
299.455
299.5
299.576
299.467
299.438
299.412
299.393
299.386
299.396
299.513
299.524
299.386
299.365
299.357
299.362
299.37
299.389
299.489
299.396
299.388
299.385
299.393
299.417
299.554
299.632
299.571
299.43
299.411
299.405
299.405
299.416
299.402
299.395
299.398
299.408
299.433
299.54
299.58
299.449
299.427
299.419
299.423
299.431
299.446
299.475
299.619
299.611
299.458
299.424
299.405
299.398
299.403
299.443
299.392
299.38
299.389
299.498
299.531
299.409
299.392
299.386
299.383
299.384
299.386
299.387
299.387
299.386
299.389
299.393
299.402
299.417
299.447
299.553
299.643
299.588
299.438
299.414
299.406
299.409
299.42
299.455
299.408
299.389
299.38
299.379
299.415
299.381
299.381
299.389
299.402
299.425
299.46
299.617
299.643
299.519
299.559
299.452
299.437
299.427
299.425
299.434
299.444
299.533
299.431
299.408
299.391
299.376
299.365
299.361
299.363
299.366
299.373
299.383
299.391
299.395
299.401
299.413
299.437
299.491
299.587
299.512
299.601
299.539
299.473
299.463
299.531
299.492
299.604
299.579
299.427
299.397
299.381
299.376
299.379
299.394
299.42
299.539
299.482
299.566
299.47
299.444
299.429
299.43
299.443
299.474
299.536
299.671
299.636
299.467
299.431
299.4
299.389
299.394
299.418
299.457
299.586
299.742
299.795
299.745
299.576
299.499
299.46
299.442
299.445
299.529
299.495
299.622
299.608
299.465
299.436
299.418
299.403
299.396
299.392
299.392
299.395
299.4
299.26
299.269
299.262
299.273
299.279
299.285
299.263
299.305
299.322
299.325
299.341
299.346
299.349
299.365
299.318
299.275
299.325
299.335
299.339
299.344
299.316
299.359
299.342
299.304
299.357
299.347
299.309
299.312
299.313
299.3
299.301
299.301
299.297
299.277
299.293
299.285
299.289
299.293
299.285
299.295
299.288
299.284
299.279
299.278
299.277
299.27
299.268
299.266
299.248
299.25
299.246
299.243
299.237
299.243
299.25
299.255
299.256
299.254
299.238
299.243
299.249
299.244
299.24
299.241
299.233
299.227
299.231
299.233
299.24
299.261
299.269
299.249
299.223
299.255
299.248
299.244
299.238
299.243
299.249
299.26
299.222
299.207
299.254
299.254
299.251
299.243
299.246
299.242
299.241
299.24
299.25
299.267
299.251
299.263
299.271
299.218
299.23
299.223
299.215
299.209
299.204
299.203
299.214
299.233
299.251
299.236
299.256
299.25
299.246
299.249
299.246
299.227
299.25
299.254
299.238
299.187
299.175
299.229
299.242
299.249
299.266
299.289
299.287
299.258
299.29
299.281
299.274
299.279
299.253
299.231
299.255
299.248
299.233
299.222
299.226
299.22
299.227
299.216
299.171
299.2
299.201
299.202
299.206
299.208
299.216
299.222
299.224
299.218
299.166
299.205
299.237
299.221
299.205
299.203
299.202
299.201
299.205
299.196
299.222
299.239
299.254
299.242
299.264
299.281
299.26
299.243
299.195
299.252
299.248
299.282
299.302
299.255
299.267
299.249
299.239
299.231
299.217
299.152
299.176
299.23
299.24
299.243
299.244
299.203
299.266
299.263
299.248
299.261
299.247
299.232
299.221
299.202
299.208
299.213
299.219
299.227
299.238
299.22
299.211
299.24
299.236
299.222
299.229
299.24
299.209
299.236
299.254
299.252
299.246
299.244
299.204
299.191
299.186
299.218
299.263
299.263
299.254
299.239
299.179
299.224
299.225
299.217
299.207
299.182
299.165
299.105
299.135
299.166
299.156
299.153
299.154
299.16
299.119
299.156
299.196
299.197
299.195
299.191
299.18
299.197
299.2
299.205
299.228
299.244
299.227
299.253
299.219
299.246
299.238
299.237
299.207
299.228
299.251
299.233
299.176
299.236
299.249
299.24
299.236
299.23
299.227
299.21
299.234
299.221
299.21
299.167
299.208
299.211
299.159
299.187
299.244
299.254
299.248
299.249
299.244
299.182
299.221
299.227
299.236
299.212
299.21
299.256
299.208
299.251
299.275
299.273
299.276
299.253
299.255
299.256
299.201
299.217
299.212
299.209
299.208
299.197
299.198
299.189
299.189
299.177
299.182
299.186
299.179
299.146
299.176
299.175
299.18
299.179
299.178
299.171
299.178
299.176
299.193
299.203
299.18
299.214
299.22
299.221
299.206
299.182
299.227
299.225
299.217
299.177
299.179
299.181
299.191
299.19
299.182
299.13
299.199
299.222
299.229
299.211
299.212
299.241
299.258
299.23
299.269
299.259
299.241
299.222
299.205
299.192
299.157
299.153
299.188
299.188
299.187
299.188
299.2
299.2
299.175
299.206
299.199
299.207
299.212
299.205
299.163
299.207
299.164
299.214
299.218
299.21
299.223
299.223
299.231
299.234
299.23
299.231
299.234
299.229
299.231
299.253
299.253
299.252
299.254
299.261
299.267
299.272
299.244
299.232
299.246
299.242
299.231
299.224
299.219
299.208
299.203
299.196
299.187
299.137
299.15
299.205
299.218
299.22
299.222
299.226
299.228
299.227
299.226
299.232
299.231
299.232
299.237
299.243
299.245
299.225
299.246
299.2
299.234
299.232
299.233
299.238
299.242
299.226
299.219
299.208
299.19
299.186
299.158
299.2
299.215
299.226
299.237
299.249
299.257
299.239
299.253
299.275
299.222
299.252
299.252
299.252
299.251
299.239
299.244
299.22
299.235
299.231
299.216
299.208
299.206
299.209
299.204
299.207
299.209
299.208
299.219
299.225
299.228
299.238
299.25
299.249
299.208
299.248
299.21
299.256
299.26
299.254
299.22
299.256
299.237
299.204
299.229
299.224
299.216
299.209
299.209
299.209
299.21
299.205
299.239
299.215
299.254
299.26
299.261
299.26
299.267
299.28
299.294
299.28
299.246
299.254
299.227
299.225
299.225
299.226
299.223
299.236
299.249
299.301
299.321
299.328
299.325
299.295
299.272
299.254
299.245
299.217
299.261
299.239
299.219
299.253
299.254
299.247
299.243
299.238
299.233
299.227
299.221
299.21
298.894
298.924
298.941
298.942
298.942
298.925
298.852
298.916
298.936
298.933
298.909
298.896
298.888
298.937
298.871
298.862
298.96
298.986
298.989
298.972
298.932
298.97
298.932
298.896
298.959
298.961
298.879
298.944
298.953
298.967
298.961
298.95
298.936
298.875
298.928
298.94
298.948
298.95
298.958
298.948
298.958
298.957
298.963
298.96
298.951
298.946
298.94
298.928
298.93
298.927
298.923
298.92
298.91
298.927
298.933
298.929
298.918
298.906
298.869
298.905
298.915
298.932
298.928
298.913
298.913
298.907
298.893
298.879
298.838
298.888
298.898
298.851
298.84
298.904
298.922
298.92
298.901
298.853
298.896
298.908
298.878
298.838
298.9
298.921
298.925
298.923
298.919
298.923
298.923
298.923
298.916
298.894
298.841
298.845
298.884
298.835
298.889
298.893
298.891
298.881
298.862
298.829
298.864
298.868
298.839
298.847
298.898
298.909
298.912
298.894
298.867
298.818
298.879
298.871
298.847
298.754
298.757
298.854
298.884
298.901
298.894
298.857
298.868
298.881
298.922
298.936
298.936
298.926
298.869
298.851
298.902
298.907
298.913
298.915
298.904
298.908
298.899
298.899
298.866
298.873
298.864
298.883
298.896
298.903
298.9
298.899
298.898
298.884
298.802
298.836
298.872
298.881
298.878
298.875
298.875
298.871
298.855
298.824
298.867
298.889
298.896
298.863
298.859
298.874
298.876
298.861
298.795
298.858
298.825
298.871
298.907
298.847
298.882
298.882
298.892
298.891
298.864
298.769
298.771
298.87
298.894
298.897
298.872
298.804
298.86
298.828
298.819
298.893
298.901
298.896
298.879
298.879
298.882
298.889
298.891
298.892
298.884
298.823
298.822
298.882
298.887
298.894
298.884
298.858
298.795
298.839
298.904
298.911
298.906
298.881
298.792
298.773
298.83
298.837
298.913
298.923
298.922
298.891
298.809
298.879
298.898
298.896
298.87
298.855
298.808
298.717
298.758
298.813
298.825
298.808
298.781
298.788
298.734
298.749
298.843
298.87
298.874
298.868
298.866
298.851
298.855
298.817
298.857
298.855
298.786
298.788
298.781
298.849
298.852
298.828
298.773
298.818
298.863
298.853
298.763
298.807
298.843
298.879
298.883
298.88
298.868
298.836
298.868
298.883
298.867
298.799
298.854
298.857
298.791
298.822
298.872
298.882
298.869
298.831
298.852
298.79
298.855
298.871
298.859
298.796
298.781
298.848
298.841
298.85
298.898
298.915
298.909
298.858
298.826
298.858
298.794
298.857
298.872
298.879
298.878
298.892
298.885
298.889
298.873
298.869
298.869
298.863
298.852
298.799
298.84
298.857
298.864
298.868
298.862
298.861
298.852
298.851
298.848
298.834
298.79
298.853
298.863
298.855
298.815
298.802
298.87
298.883
298.86
298.774
298.782
298.838
298.837
298.817
298.764
298.71
298.784
298.849
298.852
298.851
298.81
298.862
298.871
298.889
298.917
298.926
298.913
298.893
298.87
298.843
298.757
298.748
298.826
298.846
298.858
298.87
298.868
298.87
298.816
298.869
298.87
298.874
298.858
298.834
298.741
298.76
298.764
298.847
298.867
298.876
298.879
298.891
298.901
298.905
298.916
298.91
298.886
298.81
298.828
298.893
298.911
298.93
298.93
298.934
298.934
298.917
298.85
298.828
298.885
298.891
298.904
298.899
298.881
298.836
298.861
298.854
298.819
298.726
298.727
298.841
298.875
298.896
298.905
298.908
298.906
298.918
298.92
298.907
298.902
298.913
298.911
298.903
298.886
298.839
298.79
298.82
298.868
298.892
298.907
298.908
298.897
298.887
298.884
298.872
298.872
298.853
298.799
298.87
298.898
298.912
298.92
298.914
298.907
298.842
298.863
298.894
298.855
298.888
298.913
298.918
298.906
298.9
298.886
298.838
298.893
298.897
298.906
298.899
298.89
298.881
298.892
298.892
298.892
298.896
298.895
298.903
298.911
298.906
298.885
298.855
298.789
298.842
298.797
298.855
298.902
298.901
298.844
298.876
298.816
298.81
298.875
298.887
298.89
298.89
298.883
298.877
298.862
298.809
298.852
298.822
298.897
298.924
298.934
298.935
298.925
298.911
298.899
298.856
298.814
298.875
298.881
298.872
298.866
298.864
298.867
298.853
298.809
298.797
298.797
298.842
298.87
298.917
298.925
298.917
298.892
298.83
298.87
298.839
298.81
298.897
298.916
298.918
298.914
298.903
298.902
298.906
298.899
298.891
298.437
298.485
298.469
298.504
298.489
298.476
298.407
298.459
298.481
298.479
298.434
298.425
298.414
298.477
298.417
298.415
298.509
298.547
298.552
298.53
298.471
298.481
298.445
298.481
298.523
298.505
298.409
298.461
298.505
298.508
298.511
298.486
298.45
298.412
298.462
298.448
298.492
298.504
298.48
298.515
298.524
298.534
298.538
298.533
298.52
298.491
298.504
298.499
298.445
298.497
298.512
298.499
298.451
298.508
298.528
298.521
298.486
298.413
298.39
298.414
298.484
298.499
298.51
298.511
298.491
298.459
298.425
298.4
298.363
298.435
298.447
298.413
298.397
298.463
298.491
298.504
298.485
298.403
298.466
298.471
298.426
298.443
298.471
298.486
298.491
298.481
298.499
298.497
298.487
298.461
298.457
298.445
298.365
298.361
298.423
298.401
298.443
298.466
298.473
298.463
298.439
298.368
298.406
298.401
298.34
298.365
298.449
298.481
298.478
298.459
298.409
298.361
298.414
298.428
298.389
298.36
298.316
298.411
298.446
298.437
298.425
298.349
298.355
298.407
298.476
298.489
298.478
298.475
298.435
298.41
298.468
298.483
298.471
298.435
298.465
298.445
298.478
298.465
298.438
298.418
298.39
298.454
298.481
298.478
298.463
298.477
298.477
298.455
298.432
298.388
298.411
298.418
298.392
298.429
298.436
298.444
298.437
298.393
298.432
298.454
298.448
298.399
298.394
298.421
298.378
298.393
298.348
298.428
298.437
298.438
298.463
298.416
298.394
298.377
298.444
298.468
298.461
298.421
298.354
298.427
298.453
298.453
298.431
298.366
298.397
298.339
298.354
298.426
298.449
298.433
298.432
298.396
298.448
298.465
298.46
298.462
298.449
298.38
298.387
298.446
298.449
298.415
298.428
298.423
298.36
298.391
298.445
298.477
298.474
298.448
298.379
298.359
298.368
298.404
298.478
298.509
298.505
298.476
298.387
298.457
298.483
298.48
298.467
298.42
298.367
298.278
298.325
298.392
298.399
298.39
298.361
298.376
298.351
298.332
298.428
298.458
298.463
298.447
298.395
298.423
298.402
298.36
298.404
298.397
298.302
298.274
298.306
298.39
298.39
298.328
298.319
298.348
298.425
298.436
298.436
298.399
298.382
298.434
298.45
298.432
298.383
298.367
298.44
298.46
298.466
298.45
298.458
298.446
298.404
298.403
298.439
298.434
298.375
298.347
298.392
298.345
298.408
298.409
298.419
298.356
298.358
298.39
298.337
298.38
298.439
298.457
298.449
298.389
298.353
298.396
298.331
298.389
298.429
298.458
298.473
298.471
298.479
298.468
298.464
298.41
298.443
298.451
298.433
298.391
298.426
298.422
298.444
298.45
298.44
298.407
298.414
298.376
298.416
298.413
298.349
298.416
298.419
298.357
298.358
298.389
298.424
298.442
298.43
298.35
298.384
298.411
298.425
298.393
298.287
298.26
298.316
298.347
298.394
298.37
298.428
298.432
298.394
298.427
298.486
298.487
298.476
298.44
298.423
298.394
298.311
298.321
298.407
298.422
298.403
298.423
298.438
298.439
298.434
298.428
298.383
298.433
298.443
298.403
298.293
298.315
298.353
298.408
298.415
298.388
298.436
298.444
298.472
298.495
298.492
298.478
298.44
298.338
298.364
298.456
298.49
298.492
298.51
298.505
298.49
298.465
298.379
298.368
298.42
298.465
298.475
298.472
298.453
298.402
298.436
298.433
298.406
298.322
298.318
298.423
298.452
298.467
298.466
298.484
298.506
298.504
298.497
298.5
298.498
298.49
298.491
298.475
298.433
298.345
298.29
298.323
298.419
298.443
298.47
298.485
298.473
298.417
298.399
298.417
298.398
298.434
298.441
298.472
298.492
298.493
298.489
298.488
298.456
298.382
298.392
298.447
298.413
298.42
298.478
298.488
298.476
298.417
298.44
298.397
298.446
298.47
298.463
298.456
298.448
298.469
298.476
298.478
298.465
298.438
298.452
298.472
298.473
298.466
298.456
298.415
298.35
298.399
298.364
298.382
298.451
298.473
298.442
298.442
298.361
298.377
298.449
298.471
298.476
298.47
298.457
298.419
298.377
298.344
298.396
298.379
298.449
298.486
298.506
298.503
298.483
298.436
298.391
298.344
298.353
298.405
298.378
298.423
298.44
298.433
298.4
298.343
298.336
298.289
298.29
298.353
298.358
298.46
298.48
298.457
298.45
298.407
298.432
298.381
298.354
298.445
298.487
298.493
298.486
298.481
298.472
298.476
298.462
298.402
297.93
298.005
297.97
298.017
297.964
297.983
297.912
297.933
297.936
297.966
297.914
297.922
297.967
297.985
297.95
297.996
298.041
298.053
298.038
298.005
297.938
297.968
297.919
297.965
297.974
297.999
297.995
297.912
297.947
297.993
297.997
297.954
297.975
297.95
297.987
297.934
297.984
297.981
297.925
297.958
298.011
298.002
298.042
298.046
298.017
297.942
297.991
297.961
297.919
297.997
298.013
298.017
297.983
298.04
298.045
298.013
297.985
297.892
297.887
297.895
297.992
298.031
298.03
297.983
297.996
297.965
297.873
297.845
297.884
297.937
297.948
297.898
297.894
297.974
298.009
298.03
298.024
298.025
297.987
297.974
297.899
297.905
297.927
297.986
297.988
297.943
297.988
298.002
297.993
297.938
297.954
297.903
297.873
297.882
297.936
297.926
297.958
297.954
297.983
297.978
297.949
297.878
297.93
297.925
297.856
297.867
297.954
297.971
297.987
297.97
297.925
297.881
297.929
297.89
297.861
297.883
297.836
297.913
297.934
297.904
297.936
297.859
297.841
297.894
297.976
297.991
297.955
297.977
297.93
297.931
297.978
297.976
297.967
297.907
297.966
297.917
297.971
297.967
297.912
297.897
297.911
297.984
298.005
297.998
297.934
297.99
297.996
297.971
297.896
297.851
297.852
297.92
297.877
297.923
297.907
297.94
297.909
297.888
297.901
297.943
297.93
297.877
297.888
297.87
297.848
297.911
297.87
297.943
297.958
297.937
297.977
297.948
297.894
297.872
297.945
297.981
297.971
297.911
297.874
297.952
297.962
297.959
297.931
297.9
297.902
297.842
297.86
297.941
297.944
297.89
297.913
297.863
297.945
297.957
297.916
297.95
297.962
297.913
297.932
297.97
297.923
297.887
297.919
297.878
297.849
297.878
297.96
297.98
297.986
297.966
297.894
297.908
297.859
297.927
297.998
297.993
298.017
297.993
297.924
297.978
298.005
298
297.945
297.937
297.845
297.814
297.852
297.921
297.932
297.89
297.896
297.873
297.902
297.883
297.953
297.986
297.986
297.963
297.872
297.888
297.914
297.876
297.898
297.894
297.808
297.785
297.815
297.886
297.871
297.895
297.852
297.855
297.901
297.927
297.896
297.886
297.906
297.949
297.952
297.941
297.88
297.859
297.898
297.966
297.977
297.959
297.95
297.945
297.882
297.898
297.903
297.917
297.86
297.871
297.92
297.879
297.917
297.871
297.912
297.866
297.838
297.857
297.815
297.834
297.872
297.935
297.945
297.889
297.911
297.917
297.841
297.868
297.942
297.97
297.939
297.971
297.975
297.991
297.975
297.92
297.978
297.976
297.97
297.922
297.938
297.912
297.967
297.97
297.95
297.887
297.923
297.872
297.914
297.882
297.846
297.925
297.929
297.861
297.891
297.918
297.895
297.961
297.96
297.893
297.935
297.953
297.93
297.914
297.84
297.87
297.816
297.808
297.861
297.848
297.909
297.941
297.918
297.908
297.973
298
297.981
297.908
297.908
297.924
297.838
297.852
297.918
297.935
297.942
297.944
297.904
297.945
297.938
297.948
297.878
297.938
297.915
297.909
297.822
297.812
297.818
297.907
297.911
297.862
297.912
297.917
297.971
297.998
298.018
298.007
297.966
297.864
297.892
297.96
297.963
297.997
297.98
298.003
298.009
297.98
297.889
297.868
297.881
297.93
297.983
297.987
297.977
297.942
297.963
297.953
297.905
297.877
297.933
297.947
297.926
297.973
297.94
297.983
297.972
298.008
298.004
297.957
297.939
297.975
297.981
297.967
297.926
297.831
297.83
297.825
297.905
297.922
297.987
298.001
297.97
297.888
297.85
297.905
297.882
297.962
297.995
298.009
298.001
297.999
298.009
297.996
297.973
297.884
297.885
297.966
297.981
298.002
298.008
298.007
297.965
297.903
297.946
297.92
297.959
297.947
297.962
297.961
297.907
297.943
297.982
297.981
297.958
297.903
297.919
297.973
297.987
297.976
297.918
297.889
297.857
297.919
297.913
297.907
297.991
298.014
298
297.975
297.902
297.912
297.955
297.963
297.975
297.958
297.953
297.926
297.841
297.829
297.899
297.875
297.955
298.004
298.026
298.021
297.981
297.891
297.872
297.831
297.857
297.908
297.849
297.871
297.887
297.882
297.887
297.825
297.86
297.856
297.8
297.867
297.953
297.984
297.986
297.926
297.952
297.905
297.927
297.88
297.867
297.962
297.983
297.971
297.951
297.924
297.908
297.968
297.971
297.895
297.444
297.53
297.567
297.55
297.484
297.483
297.42
297.437
297.421
297.473
297.413
297.417
297.469
297.49
297.445
297.444
297.474
297.512
297.501
297.437
297.386
297.38
297.373
297.393
297.397
297.452
297.423
297.363
297.368
297.409
297.454
297.438
297.482
297.479
297.466
297.481
297.438
297.461
297.406
297.399
297.473
297.462
297.507
297.488
297.465
297.42
297.475
297.452
297.514
297.492
297.496
297.534
297.551
297.554
297.551
297.483
297.501
297.432
297.429
297.487
297.49
297.466
297.489
297.426
297.453
297.406
297.355
297.325
297.35
297.407
297.383
297.341
297.352
297.416
297.44
297.5
297.52
297.501
297.445
297.455
297.384
297.356
297.386
297.449
297.444
297.409
297.446
297.442
297.47
297.472
297.414
297.374
297.394
297.392
297.433
297.393
297.396
297.432
297.466
297.45
297.443
297.357
297.376
297.382
297.35
297.378
297.443
297.445
297.455
297.399
297.385
297.412
297.377
297.341
297.351
297.39
297.352
297.388
297.437
297.412
297.426
297.379
297.437
297.428
297.472
297.479
297.468
297.445
297.397
297.413
297.446
297.422
297.419
297.479
297.488
297.5
297.479
297.412
297.395
297.459
297.482
297.477
297.493
297.469
297.421
297.447
297.45
297.396
297.344
297.351
297.34
297.407
297.435
297.397
297.399
297.422
297.359
297.368
297.383
297.424
297.364
297.347
297.355
297.329
297.358
297.419
297.393
297.45
297.442
297.42
297.461
297.441
297.406
297.428
297.41
297.466
297.462
297.395
297.441
297.4
297.393
297.405
297.368
297.346
297.382
297.323
297.334
297.386
297.43
297.393
297.387
297.366
297.435
297.442
297.369
297.387
297.438
297.411
297.446
297.458
297.412
297.417
297.399
297.324
297.326
297.336
297.38
297.439
297.441
297.443
297.387
297.361
297.343
297.408
297.455
297.432
297.503
297.511
297.498
297.444
297.478
297.467
297.398
297.4
297.354
297.399
297.374
297.425
297.414
297.391
297.419
297.38
297.404
297.409
297.461
297.471
297.44
297.448
297.421
297.335
297.36
297.347
297.345
297.387
297.331
297.356
297.345
297.387
297.359
297.409
297.383
297.364
297.359
297.408
297.338
297.345
297.363
297.417
297.412
297.44
297.404
297.364
297.36
297.446
297.457
297.402
297.4
297.432
297.379
297.402
297.383
297.433
297.399
297.386
297.429
297.421
297.406
297.381
297.426
297.375
297.323
297.329
297.371
297.326
297.32
297.401
297.409
297.374
297.377
297.412
297.358
297.374
297.44
297.445
297.384
297.403
297.417
297.443
297.495
297.497
297.445
297.432
297.447
297.422
297.425
297.463
297.448
297.459
297.441
297.398
297.439
297.454
297.414
297.345
297.337
297.425
297.449
297.447
297.393
297.422
297.389
297.436
297.457
297.412
297.44
297.399
297.382
297.431
297.423
297.373
297.323
297.354
297.371
297.441
297.406
297.466
297.445
297.403
297.454
297.441
297.457
297.419
297.438
297.421
297.365
297.386
297.434
297.407
297.428
297.387
297.352
297.378
297.416
297.4
297.451
297.426
297.372
297.423
297.41
297.319
297.302
297.382
297.37
297.394
297.399
297.396
297.445
297.468
297.466
297.455
297.443
297.372
297.401
297.448
297.396
297.426
297.393
297.448
297.433
297.434
297.41
297.378
297.426
297.395
297.452
297.445
297.44
297.423
297.45
297.436
297.375
297.387
297.413
297.451
297.412
297.462
297.437
297.439
297.406
297.464
297.447
297.371
297.355
297.395
297.438
297.418
297.365
297.341
297.346
297.349
297.393
297.42
297.464
297.492
297.475
297.409
297.367
297.384
297.44
297.447
297.453
297.471
297.47
297.424
297.439
297.451
297.424
297.378
297.39
297.444
297.436
297.462
297.476
297.463
297.422
297.462
297.449
297.402
297.39
297.355
297.364
297.386
297.382
297.394
297.457
297.459
297.429
297.434
297.41
297.436
297.407
297.403
297.351
297.359
297.371
297.436
297.431
297.396
297.461
297.487
297.47
297.463
297.394
297.404
297.452
297.414
297.44
297.395
297.427
297.374
297.33
297.327
297.396
297.351
297.396
297.463
297.487
297.474
297.453
297.367
297.382
297.344
297.361
297.425
297.44
297.374
297.35
297.342
297.348
297.337
297.368
297.332
297.283
297.328
297.386
297.456
297.47
297.429
297.448
297.403
297.434
297.403
297.37
297.41
297.445
297.391
297.351
297.323
297.338
297.438
297.466
297.502
296.942
297.034
297.074
297.063
297.037
296.976
296.932
296.94
296.988
296.963
296.939
296.937
296.922
296.927
296.914
296.895
296.907
296.97
296.937
296.915
296.867
296.825
296.838
296.882
296.884
296.914
296.861
296.86
296.909
296.868
296.893
296.956
296.974
296.974
296.907
296.953
296.888
296.919
296.871
296.947
296.953
296.995
296.988
296.924
296.939
296.916
296.97
296.984
296.993
296.952
296.972
297.007
297.04
297.014
297.009
297.035
296.997
296.999
296.954
296.996
296.932
296.897
296.968
296.969
296.907
296.882
296.918
296.853
296.862
296.891
296.853
296.826
296.819
296.846
296.876
296.958
296.952
296.927
296.924
296.937
296.871
296.87
296.928
296.943
296.889
296.868
296.882
296.884
296.93
296.967
296.915
296.953
296.901
296.891
296.895
296.889
296.878
296.938
296.971
296.94
296.918
296.839
296.839
296.85
296.912
296.889
296.947
296.945
296.925
296.848
296.842
296.876
296.843
296.888
296.864
296.909
296.935
296.903
296.918
296.95
296.949
296.964
296.932
296.904
296.92
296.936
296.935
296.894
296.884
296.886
296.929
296.909
296.873
296.939
296.925
296.915
296.907
296.875
296.898
296.944
296.961
296.911
296.931
296.92
296.963
296.952
296.913
296.875
296.921
296.885
296.93
296.902
296.941
296.899
296.93
296.942
296.894
296.892
296.938
296.927
296.858
296.838
296.869
296.942
296.968
296.971
296.977
296.942
296.901
296.889
296.914
296.909
296.87
296.873
296.881
296.936
296.921
296.938
296.905
296.833
296.832
296.862
296.845
296.834
296.867
296.817
296.809
296.834
296.91
296.948
296.931
296.879
296.927
296.91
296.864
296.873
296.906
296.889
296.903
296.961
296.959
296.941
296.888
296.87
296.82
296.813
296.799
296.877
296.863
296.901
296.875
296.808
296.8
296.859
296.934
296.926
296.961
296.933
296.912
296.887
296.947
296.95
296.941
296.901
296.936
296.881
296.858
296.896
296.875
296.944
296.964
296.965
296.923
296.915
296.923
296.938
296.898
296.947
296.937
296.834
296.821
296.852
296.843
296.874
296.838
296.844
296.842
296.866
296.916
296.888
296.849
296.855
296.907
296.901
296.937
296.905
296.849
296.869
296.918
296.92
296.921
296.871
296.926
296.928
296.921
296.881
296.917
296.905
296.951
296.921
296.948
296.917
296.916
296.912
296.934
296.895
296.936
296.956
296.898
296.876
296.87
296.924
296.921
296.855
296.832
296.862
296.85
296.845
296.844
296.914
296.941
296.889
296.937
296.91
296.957
296.897
296.903
296.895
296.945
296.98
296.895
296.892
296.933
296.923
296.924
296.914
296.896
296.912
296.9
296.877
296.939
296.958
296.883
296.867
296.834
296.905
296.915
296.935
296.873
296.886
296.924
296.902
296.959
296.97
296.947
296.868
296.913
296.877
296.858
296.826
296.846
296.914
296.96
296.995
296.995
296.954
296.936
296.869
296.878
296.865
296.929
296.968
296.971
296.921
296.964
296.934
296.901
296.894
296.922
296.866
296.898
296.845
296.852
296.822
296.918
296.889
296.921
296.893
296.865
296.84
296.902
296.862
296.835
296.862
296.842
296.846
296.881
296.884
296.91
296.868
296.908
296.93
296.902
296.936
296.95
296.877
296.869
296.873
296.853
296.864
296.86
296.861
296.93
296.926
296.953
296.929
296.923
296.925
296.916
296.9
296.936
296.872
296.864
296.914
296.975
296.977
296.963
296.927
296.925
296.944
296.901
296.893
296.88
296.861
296.869
296.839
296.818
296.819
296.858
296.857
296.921
296.928
296.922
296.948
296.913
296.922
296.928
296.886
296.926
296.886
296.868
296.906
296.882
296.854
296.859
296.887
296.857
296.882
296.87
296.901
296.853
296.871
296.911
296.923
296.885
296.934
296.914
296.874
296.838
296.843
296.829
296.855
296.915
296.914
296.935
296.902
296.907
296.908
296.901
296.904
296.848
296.845
296.909
296.892
296.919
296.921
296.897
296.884
296.942
296.935
296.907
296.928
296.885
296.881
296.906
296.932
296.888
296.872
296.878
296.834
296.836
296.912
296.892
296.827
296.858
296.928
296.936
296.899
296.92
296.865
296.879
296.831
296.888
296.917
296.971
296.973
296.961
296.943
296.889
296.922
296.886
296.807
296.771
296.811
296.83
296.924
296.932
296.956
296.931
296.894
296.884
296.891
296.929
296.882
296.904
296.871
296.823
296.805
296.818
296.894
296.903
296.971
296.439
296.499
296.553
296.552
296.55
296.5
296.464
296.444
296.505
296.452
296.468
296.436
296.398
296.386
296.419
296.414
296.463
296.442
296.391
296.391
296.383
296.409
296.345
296.35
296.351
296.41
296.445
296.458
296.437
296.389
296.374
296.438
296.413
296.416
296.387
296.435
296.372
296.406
296.366
296.432
296.443
296.475
296.452
296.413
296.454
296.483
296.463
296.478
296.438
296.437
296.465
296.453
296.507
296.459
296.447
296.5
296.449
296.47
296.442
296.476
296.413
296.404
296.427
296.443
296.397
296.455
296.471
296.466
296.403
296.4
296.411
296.344
296.323
296.36
296.381
296.423
296.412
296.447
296.416
296.432
296.425
296.365
296.429
296.418
296.386
296.368
296.362
296.383
296.444
296.481
296.509
296.49
296.411
296.378
296.363
296.431
296.485
296.479
296.466
296.425
296.423
296.374
296.416
296.449
296.43
296.394
296.443
296.446
296.432
296.35