/*--------------------------------*- C++ -*----------------------------------*\
| =========                 |                                                 |
| \\      /  F ield         | OpenFOAM: The Open Source CFD Toolbox           |
|  \\    /   O peration     | Version:  v2012                                 |
|   \\  /    A nd           | Website:  www.openfoam.com                      |
|    \\/     M anipulation  |                                                 |
\*---------------------------------------------------------------------------*/
FoamFile
{
    version     2.0;
    format      ascii;
    class       volScalarField;
    location    "50";
    object      theta;
}
// * * * * * * * * * * * * * * * * * * * * * * * * * * * * * * * * * * * * * //

dimensions      [0 0 0 1 0 0 0];


internalField   nonuniform List<scalar> 
65536
(
-0.217936
-0.293485
-0.307732
-0.309873
-0.296913
-0.268281
-0.13448
-0.186267
-0.225965
-0.217611
-0.165743
-0.0200943
-0.0123587
-0.125693
-0.0332014
-0.0738037
-0.209111
-0.226638
-0.226222
-0.211148
-0.0912141
-0.129734
-0.0121492
-0.0380708
-0.167149
-0.180962
-0.115914
-0.226919
-0.257864
-0.270965
-0.275251
-0.269474
-0.253419
-0.158601
-0.254158
-0.271066
-0.279764
-0.277662
-0.266363
-0.285
-0.296375
-0.306079
-0.310906
-0.313692
-0.314368
-0.312919
-0.316259
-0.322648
-0.323729
-0.333195
-0.339573
-0.346528
-0.348376
-0.349959
-0.345811
-0.338
-0.323458
-0.302659
-0.204859
-0.300369
-0.329267
-0.345813
-0.355604
-0.363086
-0.363298
-0.357311
-0.346491
-0.322164
-0.229369
-0.283402
-0.276664
-0.144693
-0.157364
-0.300284
-0.326549
-0.34215
-0.3476
-0.347304
-0.325314
-0.295072
-0.156739
-0.166354
-0.298139
-0.320033
-0.331964
-0.33651
-0.343924
-0.345127
-0.342758
-0.333223
-0.316159
-0.289812
-0.133959
-0.117082
-0.238824
-0.196742
-0.326879
-0.356663
-0.373407
-0.379299
-0.370094
-0.32228
-0.335261
-0.316656
-0.242181
-0.172485
-0.299694
-0.324882
-0.329633
-0.313365
-0.251409
-0.176364
-0.287504
-0.290697
-0.241664
-0.13234
-0.170151
-0.311428
-0.325402
-0.313782
-0.278746
-0.17553
-0.0552818
-0.111926
-0.261081
-0.286362
-0.290967
-0.275787
-0.140327
-0.158197
-0.306796
-0.335298
-0.34889
-0.35523
-0.36054
-0.359088
-0.359349
-0.348712
-0.281009
-0.357817
-0.375268
-0.383192
-0.385535
-0.383934
-0.38114
-0.371767
-0.356534
-0.334589
-0.214589
-0.18389
-0.321677
-0.347978
-0.364527
-0.378405
-0.384894
-0.381521
-0.367535
-0.293915
-0.339035
-0.330241
-0.298348
-0.142337
-0.129317
-0.263416
-0.278738
-0.291166
-0.201272
-0.259133
-0.17474
-0.106476
-0.198126
-0.127163
-0.233448
-0.298477
-0.328706
-0.34057
-0.333316
-0.23681
-0.191578
-0.308855
-0.319072
-0.310258
-0.290824
-0.18432
-0.228283
-0.107563
-0.12302
-0.278954
-0.316319
-0.346621
-0.364561
-0.371044
-0.378372
-0.376724
-0.368131
-0.349788
-0.321137
-0.174556
-0.173425
-0.313017
-0.335638
-0.336816
-0.331138
-0.307732
-0.160763
-0.156065
-0.295274
-0.318885
-0.320246
-0.301551
-0.164211
-0.0822942
-0.0877092
-0.134947
-0.28617
-0.30998
-0.320469
-0.318518
-0.24056
-0.333742
-0.353025
-0.370973
-0.38527
-0.391687
-0.38777
-0.284401
-0.261134
-0.396047
-0.416156
-0.419526
-0.394632
-0.379823
-0.245901
-0.229658
-0.362416
-0.384954
-0.397411
-0.40181
-0.395881
-0.389125
-0.364782
-0.273117
-0.307911
-0.289371
-0.121622
-0.0589012
-0.12353
-0.288639
-0.310209
-0.304132
-0.163238
-0.158252
-0.292383
-0.300301
-0.2399
-0.15058
-0.234275
-0.313301
-0.33687
-0.334287
-0.313376
-0.227989
-0.337895
-0.353697
-0.354339
-0.301317
-0.344874
-0.334388
-0.209123
-0.190232
-0.30233
-0.29278
-0.21751
-0.160113
-0.270091
-0.225025
-0.333956
-0.337033
-0.313895
-0.15884
-0.133744
-0.241846
-0.16805
-0.141475
-0.269639
-0.283723
-0.268512
-0.125158
-0.125059
-0.252236
-0.207984
-0.336751
-0.363166
-0.380834
-0.3914
-0.395889
-0.402364
-0.405257
-0.409488
-0.408025
-0.409195
-0.405399
-0.392015
-0.307837
-0.395712
-0.406533
-0.410856
-0.4106
-0.41033
-0.406779
-0.40592
-0.393483
-0.380888
-0.359292
-0.253492
-0.337766
-0.338355
-0.315004
-0.17682
-0.190478
-0.322648
-0.33709
-0.333989
-0.243348
-0.335877
-0.37044
-0.379748
-0.362802
-0.303723
-0.188159
-0.156891
-0.276437
-0.321126
-0.327838
-0.316292
-0.299472
-0.254732
-0.179021
-0.288132
-0.317219
-0.342683
-0.361737
-0.368833
-0.358764
-0.241358
-0.230919
-0.369051
-0.390175
-0.397711
-0.39247
-0.385087
-0.365432
-0.265432
-0.358414
-0.366441
-0.370117
-0.361416
-0.338174
-0.200546
-0.12296
-0.183983
-0.324584
-0.344054
-0.349819
-0.350219
-0.338578
-0.352349
-0.359572
-0.357185
-0.346332
-0.321703
-0.214977
-0.174886
-0.30621
-0.32785
-0.33549
-0.331699
-0.324237
-0.3083
-0.279992
-0.135933
-0.144091
-0.297185
-0.330805
-0.3496
-0.35639
-0.351606
-0.311602
-0.363051
-0.375215
-0.366151
-0.256863
-0.223457
-0.345488
-0.362907
-0.368468
-0.371361
-0.371087
-0.368714
-0.368097
-0.367482
-0.368603
-0.365399
-0.362086
-0.352893
-0.337257
-0.307309
-0.2015
-0.11198
-0.166927
-0.31664
-0.340747
-0.34882
-0.346092
-0.335235
-0.2994
-0.346527
-0.365577
-0.374492
-0.375839
-0.339412
-0.373343
-0.374177
-0.365914
-0.352683
-0.329962
-0.295055
-0.13731
-0.111641
-0.235813
-0.195925
-0.302561
-0.31817
-0.327944
-0.330233
-0.320636
-0.310968
-0.221851
-0.323288
-0.346415
-0.364246
-0.378669
-0.389616
-0.394151
-0.392236
-0.388375
-0.381711
-0.371704
-0.364118
-0.35987
-0.353366
-0.342093
-0.317667
-0.263487
-0.167948
-0.243136
-0.153564
-0.215536
-0.281644
-0.291313
-0.223658
-0.263143
-0.151043
-0.175805
-0.327697
-0.358073
-0.374204
-0.378633
-0.375379
-0.360946
-0.334439
-0.215397
-0.272823
-0.188903
-0.284794
-0.311167
-0.325302
-0.325008
-0.311959
-0.280675
-0.218924
-0.0841406
-0.118345
-0.287609
-0.324055
-0.355002
-0.36593
-0.360785
-0.33631
-0.297664
-0.168918
-0.0122912
0.0399365
-0.00998465
-0.178446
-0.255756
-0.295034
-0.313151
-0.309501
-0.225994
-0.260176
-0.133204
-0.146652
-0.2898
-0.318605
-0.33677
-0.351517
-0.359231
-0.363219
-0.362447
-0.360239
-0.355058
-0.00415165
0.00443591
-0.00201767
0.00859617
0.0145632
0.0206607
-0.00164477
0.0411059
0.0575565
0.0606795
0.0765749
0.0815895
0.0848894
0.100555
0.0536233
0.0103542
0.0612228
0.0708346
0.0751387
0.0797512
0.0514591
0.0951719
0.078198
0.0395399
0.0923445
0.0830444
0.0442798
0.0477923
0.048861
0.0361745
0.0364298
0.0368248
0.0330702
0.0123666
0.0290625
0.020341
0.0251281
0.0289108
0.0211259
0.0311994
0.0232711
0.0200322
0.014784
0.0140671
0.0126974
0.00585551
0.0041844
0.00209432
-0.0167118
-0.0143536
-0.0181498
-0.0217147
-0.0273508
-0.0211294
-0.0146375
-0.00913449
-0.00777732
-0.0106567
-0.0260211
-0.0210947
-0.0152225
-0.0202137
-0.0244748
-0.0232492
-0.0313423
-0.0371942
-0.0331671
-0.0311077
-0.0238315
-0.00334595
0.00469719
-0.0154247
-0.0412185
-0.00965135
-0.0164291
-0.0198168
-0.0264705
-0.0212631
-0.015631
-0.00422842
-0.0421755
-0.0572221
-0.0100937
-0.0099094
-0.0137089
-0.0214486
-0.0184556
-0.0220033
-0.0231944
-0.0246691
-0.0142117
0.00291315
-0.0136946
-0.000929809
0.00694618
-0.046271
-0.0340563
-0.0414809
-0.0495663
-0.0551631
-0.0599961
-0.0609828
-0.0498348
-0.0316937
-0.0134498
-0.0283963
-0.00861516
-0.0141887
-0.0187194
-0.0154083
-0.018749
-0.0372593
-0.0139301
-0.0103412
-0.0258433
-0.0769578
-0.0896457
-0.0352073
-0.0224544
-0.0151303
0.0017171
0.0246225
0.0227665
-0.00653217
0.0261845
0.0171434
0.0100898
0.0147741
-0.011017
-0.0334445
-0.00956458
-0.0161263
-0.0308181
-0.0423366
-0.0382606
-0.0447283
-0.037446
-0.0478767
-0.0928548
-0.0638002
-0.0627512
-0.0617584
-0.0583487
-0.056099
-0.0481566
-0.0422565
-0.0403138
-0.0463542
-0.0987405
-0.0593229
-0.0274405
-0.0430187
-0.0596498
-0.0614596
-0.0620954
-0.0628752
-0.0597242
-0.0683614
-0.0418718
-0.0254854
-0.0100878
-0.0224236
-0.000211218
0.0167331
-0.0047242
-0.0211347
-0.0690827
-0.0127216
-0.016486
0.0173091
0.0381087
-0.00964163
0.00255277
-0.0150403
-0.0253531
-0.033296
-0.0472966
-0.111791
-0.0887147
-0.0347134
-0.0239906
-0.0210702
-0.0200558
-0.0613413
0.0022268
-0.00170173
-0.0166972
-0.00290315
-0.0169185
-0.0322799
-0.0432505
-0.062136
-0.0558804
-0.051349
-0.044912
-0.0368484
-0.0267342
-0.0445581
-0.053733
-0.0247078
-0.0283713
-0.0422553
-0.0348784
-0.0243166
-0.0549111
-0.0285399
-0.00987019
-0.0117908
-0.0184536
-0.0202374
-0.0600716
-0.0736397
-0.0778388
-0.0461926
-0.0016373
-0.00147731
-0.0100899
-0.0251463
-0.0850682
-0.0399022
-0.0389142
-0.0476245
-0.0577161
-0.0823433
-0.0993387
-0.159537
-0.128909
-0.0986518
-0.108277
-0.11089
-0.110457
-0.104077
-0.1451
-0.108046
-0.0683346
-0.0674031
-0.0688657
-0.0730255
-0.0843864
-0.0670215
-0.0644683
-0.0593842
-0.0359296
-0.0198313
-0.0371861
-0.0114693
-0.0449128
-0.0182795
-0.0261626
-0.0276679
-0.056897
-0.0366139
-0.0136006
-0.031405
-0.088018
-0.0278551
-0.0155826
-0.024261
-0.0284928
-0.0344008
-0.0368898
-0.054438
-0.0304826
-0.043082
-0.0545678
-0.0972595
-0.0557626
-0.0530116
-0.1051
-0.0770796
-0.0202695
-0.0100929
-0.0165167
-0.0154273
-0.0207295
-0.0821384
-0.0437459
-0.0373754
-0.0284222
-0.0521339
-0.0540256
-0.00836455
-0.0567028
-0.013371
0.0106317
0.00846381
0.0119576
-0.0115336
-0.00942858
-0.00795314
-0.0630333
-0.0468739
-0.051958
-0.0552827
-0.0559671
-0.0672503
-0.0662251
-0.0754796
-0.0755379
-0.0873167
-0.0817981
-0.0785482
-0.0853025
-0.117761
-0.0879371
-0.0892435
-0.0847424
-0.0857386
-0.0861969
-0.0935548
-0.0864258
-0.0884881
-0.0717358
-0.0616624
-0.0840367
-0.0502275
-0.0443228
-0.0433791
-0.0582901
-0.0822961
-0.0368585
-0.0393617
-0.0472038
-0.0876412
-0.0851665
-0.0836902
-0.0733123
-0.0744497
-0.0826773
-0.133913
-0.0647505
-0.0421558
-0.0353545
-0.0529987
-0.0520846
-0.0231333
-0.00586751
-0.0343097
0.00485444
-0.00573443
-0.0237458
-0.0425928
-0.059683
-0.0719665
-0.106951
-0.111642
-0.0762448
-0.0758472
-0.0771025
-0.0763621
-0.0639283
-0.0641477
-0.0889524
-0.0579835
-0.0655674
-0.0573497
-0.0520023
-0.059463
-0.101543
-0.0575583
-0.10036
-0.0500941
-0.0463529
-0.0541414
-0.0413275
-0.0409827
-0.0336368
-0.030047
-0.0340906
-0.0336171
-0.0299218
-0.0356681
-0.033406
-0.0112337
-0.011575
-0.0123266
-0.0105914
-0.00301219
0.00308896
0.00808257
-0.0198673
-0.031879
-0.0180377
-0.0223381
-0.033456
-0.0397562
-0.0447977
-0.0559122
-0.0614775
-0.0678665
-0.0769855
-0.127554
-0.113791
-0.0589696
-0.0458394
-0.0442782
-0.0421038
-0.0381397
-0.0364281
-0.0373352
-0.0386876
-0.0322291
-0.0334263
-0.0318248
-0.0271215
-0.021323
-0.0189775
-0.039582
-0.0183887
-0.0644096
-0.0299904
-0.0324708
-0.0309032
-0.0265059
-0.0227499
-0.0381651
-0.045223
-0.056383
-0.0737598
-0.0781423
-0.106575
-0.0645086
-0.0489698
-0.0385193
-0.0268703
-0.0148541
-0.00761939
-0.0253118
-0.011311
0.0107359
-0.0420539
-0.0119914
-0.0120732
-0.0120478
-0.0136834
-0.0253196
-0.0198343
-0.0438322
-0.029192
-0.0333037
-0.0483427
-0.056359
-0.0583691
-0.0553845
-0.0600667
-0.0572695
-0.0557448
-0.056381
-0.0457432
-0.0397392
-0.0366059
-0.0262355
-0.0144695
-0.0148781
-0.0562969
-0.0159629
-0.0544438
-0.00792889
-0.00388579
-0.00983304
-0.0446428
-0.00865851
-0.0268533
-0.0602923
-0.0351679
-0.0397891
-0.0478057
-0.0556319
-0.0554047
-0.055056
-0.054126
-0.0597377
-0.0253855
-0.0491636
-0.0100689
-0.00443052
-0.00299278
-0.00438602
0.00249515
0.0154872
0.0294878
0.0152587
-0.0178245
-0.010613
-0.0375616
-0.039044
-0.0389935
-0.0382437
-0.0407557
-0.0280897
-0.0156558
0.0364825
0.0567034
0.064139
0.0609388
0.0308384
0.00785336
-0.00997583
-0.0190346
-0.0470552
-0.00312248
-0.0247995
-0.0456308
-0.0110576
-0.0101045
-0.0171012
-0.0210612
-0.0258691
-0.0308707
-0.0376662
-0.0430036
-0.0538901
0.120467
0.150016
0.166753
0.167991
0.168252
0.151413
0.0784157
0.142282
0.162441
0.159474
0.135407
0.122327
0.114353
0.162887
0.097186
0.0887388
0.186297
0.212354
0.215102
0.198746
0.157962
0.196208
0.158205
0.122653
0.185572
0.187622
0.105208
0.170438
0.179036
0.193715
0.186838
0.176143
0.162521
0.100833
0.153776
0.166722
0.17383
0.176069
0.184387
0.174474
0.183925
0.182984
0.188983
0.186133
0.177354
0.172732
0.165797
0.154239
0.156233
0.153106
0.14965
0.146269
0.136583
0.153125
0.158933
0.154834
0.144328
0.132064
0.0955594
0.131387
0.141277
0.15859
0.154561
0.139156
0.139248
0.133744
0.119507
0.105096
0.0642363
0.114016
0.124137
0.0772009
0.0659897
0.130037
0.148502
0.146233
0.127566
0.0794946
0.122343
0.134658
0.103983
0.0638989
0.126583
0.147567
0.151419
0.149649
0.145467
0.149181
0.148945
0.149002
0.142387
0.120453
0.0667888
0.0710294
0.110078
0.0614336
0.115714
0.119338
0.116767
0.10763
0.0884228
0.0553294
0.0898831
0.0940065
0.0648767
0.0727804
0.124678
0.134984
0.137835
0.119797
0.0928101
0.0437701
0.105093
0.0974066
0.0729813
-0.0196184
-0.0171444
0.0797811
0.110413
0.126783
0.120321
0.0829999
0.0942939
0.107218
0.148505
0.16189
0.162725
0.152631
0.0952611
0.0774554
0.128054
0.133213
0.139127
0.141331
0.129931
0.134603
0.125092
0.124794
0.0922437
0.0991713
0.0903662
0.109261
0.122691
0.129559
0.126702
0.12555
0.124736
0.110567
0.0282487
0.0620501
0.0985562
0.106839
0.103836
0.101364
0.101375
0.0975974
0.0810314
0.0503346
0.0937183
0.114758
0.121919
0.0888145
0.0850059
0.100638
0.102101
0.0874873
0.0216666
0.0842964
0.050799
0.0976951
0.133153
0.0727931
0.10794
0.108453
0.118329
0.117516
0.0901778
-0.00518998
-0.00247348
0.0959249
0.12049
0.123034
0.0984148
0.0303909
0.0860634
0.0543619
0.0447681
0.118899
0.127672
0.122268
0.105201
0.10505
0.107948
0.114918
0.117083
0.118691
0.110452
0.0493447
0.0487194
0.108446
0.113016
0.119948
0.109867
0.0842784
0.0211913
0.0650966
0.130668
0.136886
0.131895
0.106925
0.0179038
-0.00106167
0.0559211
0.0633364
0.138815
0.149493
0.147875
0.116994
0.0355763
0.105321
0.124014
0.122406
0.096639
0.0816974
0.0342876
-0.0569106
-0.0154194
0.0395559
0.050849
0.034685
0.00744345
0.0143269
-0.0398981
-0.0245907
0.0691551
0.0966402
0.10041
0.0942514
0.0919082
0.0773
0.081209
0.0430075
0.0834332
0.0812148
0.0121297
0.0143702
0.00684125
0.0755359
0.0780354
0.0542599
-0.00110117
0.0442161
0.0889267
0.0793998
-0.0103654
0.0336614
0.0690029
0.104787
0.109449
0.106083
0.0942296
0.0618074
0.09461
0.109591
0.0935452
0.0255787
0.080287
0.0830706
0.0175868
0.048314
0.0986106
0.108
0.0951342
0.0575182
0.0779489
0.0163398
0.0811112
0.0967721
0.085407
0.0218785
0.00695184
0.0740526
0.0675264
0.0758433
0.124384
0.140776
0.135592
0.0841957
0.0518645
0.0837831
0.0200363
0.0836466
0.0980077
0.105329
0.104397
0.118573
0.111574
0.115482
0.0988987
0.0947628
0.0950631
0.0891697
0.078382
0.0249644
0.0661462
0.0828758
0.0898733
0.0946192
0.0884168
0.0870002
0.0782754
0.077473
0.0743287
0.0606193
0.0158738
0.0793216
0.0896211
0.0815524
0.0412315
0.0284783
0.0965116
0.108938
0.0865374
0.000139286
0.00874933
0.0640716
0.0631471
0.0434735
-0.00962783
-0.0640572
0.00989201
0.0755016
0.0783289
0.0774588
0.0363143
0.0880693
0.0975068
0.115101
0.14349
0.151957
0.139741
0.119424
0.0960826
0.0690738
-0.0164273
-0.0253314
0.0527328
0.0725133
0.0845481
0.09642
0.0940099
0.095862
0.0422042
0.0950455
0.0965627
0.100149
0.0840783
0.060301
-0.032828
-0.0141625
-0.00949112
0.0735639
0.0930396
0.101885
0.104854
0.117527
0.127602
0.131476
0.14192
0.136649
0.112065
0.0363494
0.0540817
0.11939
0.137131
0.156375
0.155809
0.160606
0.160602
0.142989
0.0760934
0.0542653
0.111584
0.117339
0.130529
0.125631
0.107738
0.0623478
0.0870529
0.0803248
0.0453686
-0.0472501
-0.0463934
0.0672109
0.101492
0.122594
0.131502
0.134349
0.132498
0.144337
0.146704
0.133078
0.128136
0.139419
0.137127
0.12937
0.112289
0.0653621
0.0164031
0.046006
0.0939807
0.118518
0.13285
0.134077
0.123521
0.11284
0.110386
0.0986428
0.097991
0.0796789
0.0256803
0.096222
0.124004
0.138025
0.146293
0.140623
0.13277
0.068089
0.0896108
0.120002
0.0816547
0.114746
0.139122
0.144512
0.13231
0.125932
0.112038
0.064607
0.119709
0.123344
0.132087
0.125722
0.1164
0.107356
0.118043
0.117982
0.118595
0.122434
0.121361
0.129575
0.137612
0.132549
0.110879
0.081184
0.014947
0.0677693
0.0232962
0.0816937
0.127917
0.127697
0.0697738
0.101804
0.0418965
0.0357917
0.101419
0.113214
0.11661
0.115967
0.108926
0.103038
0.0883133
0.0354119
0.0784104
0.0486868
0.123079
0.150454
0.15997
0.16152
0.151075
0.137387
0.124804
0.0823452
0.0400202
0.101383
0.107261
0.0983131
0.092384
0.0901997
0.0928214
0.0792287
0.035001
0.0230915
0.0232811
0.0686312
0.0963452
0.143078
0.151747
0.143288
0.118005
0.0558188
0.0957856
0.0655713
0.0365562
0.123616
0.141893
0.14454
0.140058
0.129641
0.128479
0.131982
0.125192
0.116991
0.153686
0.201622
0.186025
0.220396
0.205511
0.192825
0.124213
0.175829
0.197328
0.196228
0.150962
0.14148
0.130922
0.1936
0.133826
0.13214
0.225326
0.264219
0.268877
0.246509
0.187417
0.197493
0.161399
0.197337
0.239867
0.221377
0.125277
0.177578
0.221253
0.224933
0.22749
0.202873
0.16715
0.128475
0.178786
0.164732
0.208407
0.220906
0.196397
0.232238
0.240376
0.250738
0.254718
0.250095
0.236848
0.20744
0.221059
0.216018
0.161756
0.213811
0.228522
0.216017
0.167978
0.224918
0.24508
0.237814
0.203182
0.130243
0.106834
0.13045
0.200693
0.215375
0.227134
0.227915
0.207365
0.175751
0.141848
0.116915
0.0801457
0.151847
0.163301
0.129885
0.11419
0.179796
0.20793
0.220569
0.201587
0.120212
0.183086
0.187974
0.14278
0.160218
0.188041
0.202349
0.20816
0.197753
0.21529
0.21341
0.204048
0.177825
0.174094
0.16202
0.0814185
0.0774581
0.13963
0.118069
0.159324
0.182585
0.189987
0.18013
0.1553
0.0846154
0.123023
0.118227
0.0566009
0.0817054
0.165627
0.197389
0.195179
0.175917
0.126063
0.0778602
0.13092
0.144256
0.105824
0.0772171
0.0326438
0.127829
0.162324
0.153556
0.141862
0.065471
0.072204
0.123864
0.192625
0.205958
0.194443
0.192194
0.151936
0.12686
0.184648
0.199827
0.187601
0.15194
0.181657
0.161425
0.194849
0.181438
0.155222
0.134773
0.107223
0.170752
0.198187
0.194715
0.180091
0.193358
0.193529
0.172097
0.149077
0.104646
0.128121
0.134619
0.108661
0.145762
0.153135
0.160396
0.153868
0.109697
0.148708
0.170758
0.164433
0.115502
0.111064
0.137971
0.0943208
0.109592
0.0643457
0.145109
0.153457
0.155137
0.1801
0.133199
0.111179
0.0937544
0.161105
0.184821
0.177285
0.137947
0.0704758
0.144228
0.170039
0.16945
0.148128
0.0827321
0.113513
0.055328
0.0703346
0.14243
0.16527
0.149605
0.149059
0.113131
0.165229
0.181411
0.176265
0.179169
0.166094
0.096276
0.103484
0.162456
0.166063
0.132094
0.14516
0.139542
0.0770191
0.107712
0.161827
0.193518
0.190274
0.164453
0.095413
0.0761386
0.0844579
0.120642
0.195135
0.226077
0.221503
0.193085
0.103285
0.173944
0.199766
0.196946
0.183913
0.136559
0.0833959
-0.00532722
0.0419008
0.10877
0.115433
0.106971
0.0782375
0.0926579
0.0674544
0.0485555
0.144447
0.175112
0.179917
0.16368
0.112106
0.140141
0.119064
0.076362
0.121104
0.114234
0.0184828
-0.00966744
0.022871
0.107108
0.106682
0.0447614
0.035733
0.0650257
0.141322
0.153157
0.152659
0.115494
0.098529
0.150829
0.166328
0.148268
0.0994993
0.0836714
0.156877
0.176887
0.182604
0.166694
0.174744
0.163224
0.120698
0.120092
0.155742
0.15121
0.0915933
0.0637736
0.108948
0.0618597
0.124506
0.126194
0.135557
0.0727285
0.0748404
0.106878
0.0542046
0.0967337
0.155284
0.17333
0.165363
0.105715
0.0695816
0.112713
0.047942
0.105272
0.145688
0.174365
0.190115
0.187564
0.196201
0.184714
0.180541
0.127109
0.160067
0.167516
0.1501
0.107548
0.142269
0.138895
0.160581
0.166706
0.157105
0.124209
0.130297
0.0931389
0.132903
0.129339
0.0653293
0.132701
0.135801
0.0739484
0.07513
0.105486
0.14094
0.159076
0.146648
0.0664305
0.100816
0.127262
0.142163
0.109437
0.00345158
-0.0228289
0.0329855
0.063501
0.110532
0.0865325
0.144508
0.149069
0.110573
0.143419
0.202726
0.204189
0.193034
0.156773
0.139344
0.110837
0.0281796
0.0374108
0.12336
0.138471
0.119407
0.139818
0.154285
0.155725
0.150876
0.1452
0.100028
0.15018
0.159476
0.11957
0.0100852
0.0316899
0.0702463
0.124447
0.131824
0.104367
0.15277
0.160447
0.188373
0.211823
0.20846
0.194416
0.156651
0.0542992
0.0806144
0.172608
0.206816
0.208762
0.226252
0.221966
0.206814
0.182007
0.0961976
0.0849475
0.137195
0.182105
0.192079
0.189067
0.169279
0.11848
0.152861
0.149574
0.122496
0.0391172
0.0350116
0.139377
0.168408
0.183663
0.18255
0.201232
0.223249
0.220894
0.213407
0.216711
0.21449
0.206659
0.207276
0.191542
0.14981
0.0612963
0.00683347
0.039559
0.135757
0.159799
0.18664
0.201743
0.18997
0.133671
0.115395
0.133814
0.115026
0.150749
0.157797
0.188792
0.208801
0.210113
0.205565
0.204538
0.172544
0.0983643
0.108311
0.163484
0.129418
0.136617
0.195158
0.204344
0.192433
0.134244
0.156893
0.113599
0.163015
0.186267
0.17937
0.172594
0.164738
0.186056
0.192289
0.194689
0.182
0.154288
0.168598
0.188502
0.189346
0.182511
0.17246
0.131379
0.0662534
0.115519
0.0806696
0.0984596
0.167536
0.189744
0.158458
0.15826
0.0782052
0.093742
0.165804
0.187587
0.192254
0.187159
0.174054
0.135643
0.0941571
0.060558
0.112995
0.0961822
0.165884
0.202942
0.222861
0.219408
0.199256
0.152711
0.107898
0.0602701
0.0692835
0.121641
0.0944083
0.139617
0.156886
0.149334
0.116949
0.0598081
0.0522532
0.00527756
0.00715514
0.069656
0.0749275
0.176562
0.19699
0.174104
0.167159
0.124212
0.149163
0.0982284
0.0704137
0.161828
0.203643
0.209422
0.202732
0.197753
0.188333
0.192478
0.178416
0.118375
0.137681
0.212575
0.176947
0.224349
0.170825
0.19026
0.118827
0.14024
0.142753
0.173268
0.12134
0.128785
0.173923
0.192215
0.157693
0.202756
0.248071
0.259842
0.245172
0.212076
0.144869
0.175635
0.126119
0.172529
0.181478
0.206381
0.202744
0.119675
0.154504
0.200072
0.204309
0.160788
0.18185
0.15772
0.194249
0.141387
0.191666
0.188725
0.13186
0.165462
0.218071
0.209327
0.249103
0.253007
0.224361
0.149608
0.198662
0.168279
0.126421
0.204575
0.219919
0.224215
0.190586
0.24708
0.252249
0.22071
0.192726
0.0997347
0.0942086
0.102328
0.198806
0.238351
0.237733
0.190672
0.203414
0.172252
0.08001
0.052466
0.0916244
0.143957
0.155015
0.105451
0.101313
0.181451
0.216724
0.236807
0.231037
0.23228
0.194709
0.18172
0.106494
0.112169
0.134594
0.193532
0.19552
0.150137
0.194846
0.209406
0.200465
0.145525
0.1617
0.110622
0.0800783
0.0889241
0.143364
0.13337
0.165394
0.161026
0.189991
0.185273
0.156196
0.0856235
0.136929
0.132578
0.0631357
0.0745877
0.161393
0.178306
0.194603
0.17773
0.132416
0.0878537
0.135889
0.0972082
0.0682811
0.0898071
0.0434702
0.120282
0.141517
0.111674
0.143272
0.0662732
0.0486597
0.100823
0.182792
0.197837
0.161943
0.183898
0.137625
0.138295
0.185564
0.183598
0.173774
0.114596
0.173237
0.124711
0.178208
0.174441
0.119112
0.104725
0.11787
0.190841
0.211906
0.20529
0.141516
0.196805
0.203107
0.178002
0.103297
0.0586251
0.0592594
0.127312
0.0839402
0.129887
0.114319
0.147247
0.116374
0.0954428
0.108204
0.150015
0.137131
0.0843667
0.0951512
0.0769705
0.0548464
0.117765
0.0777497
0.14988
0.165323
0.144125
0.184542
0.155058
0.101595
0.0790404
0.152221
0.188137
0.177833
0.117781
0.0813466
0.158996
0.169259
0.166726
0.137782
0.107235
0.108763
0.0489493
0.0670997
0.147938
0.151245
0.0976334
0.119882
0.0698236
0.152046
0.164545
0.122876
0.156804
0.168885
0.120532
0.139286
0.177633
0.130109
0.094396
0.125936
0.0855003
0.0558774
0.0848432
0.167294
0.187078
0.193676
0.173098
0.101563
0.115004
0.0664863
0.134393
0.204964
0.200562
0.224606
0.200301
0.131026
0.184823
0.212036
0.207609
0.152169
0.144316
0.0523076
0.0207688
0.0596018
0.128541
0.139297
0.0969447
0.103332
0.0801668
0.108984
0.090051
0.160341
0.192824
0.192915
0.170035
0.0794888
0.0951943
0.121734
0.0837119
0.105141
0.100779
0.0149034
-0.00745682
0.0224483
0.0935794
0.0784917
0.10219
0.0593961
0.0624904
0.108403
0.133998
0.103194
0.0937155
0.113628
0.156159
0.159692
0.148382
0.0872597
0.0663457
0.104832
0.173719
0.183948
0.165881
0.157433
0.15202
0.0896689
0.105128
0.110723
0.124385
0.0670302
0.077857
0.127232
0.0861232
0.124074
0.0782685
0.119194
0.0736924
0.0447743
0.0646198
0.0220906
0.0415085
0.0789979
0.142214
0.152713
0.0965613
0.117823
0.124457
0.0478502
0.0756305
0.149509
0.176917
0.145751
0.178075
0.182473
0.198191
0.1821
0.127183
0.184755
0.18374
0.176752
0.129387
0.145611
0.119702
0.174737
0.176834
0.156759
0.0938207
0.130437
0.0794052
0.121001
0.0897356
0.0529724
0.132194
0.136347
0.0681101
0.0980581
0.125115
0.101874
0.168671
0.167404
0.100283
0.142412
0.160662
0.137519
0.121444
0.0472067
0.0767671
0.0232852
0.0150448
0.0678209
0.0549337
0.116243
0.147825
0.12556
0.115131
0.180572
0.207691
0.188023
0.114754
0.114843
0.131142
0.0456796
0.0587654
0.125355
0.142671
0.149207
0.151365
0.111128
0.152107
0.145014
0.155524
0.0848202
0.145477
0.121818
0.116278
0.0294433
0.0191265
0.0251866
0.113882
0.118043
0.0693349
0.119354
0.124017
0.178285
0.20555
0.224782
0.214009
0.173206
0.0711879
0.0988914
0.167733
0.169774
0.203855
0.187034
0.210528
0.216398
0.187552
0.0964944
0.0750528
0.0882849
0.137723
0.189885
0.194192
0.183886
0.149047
0.170225
0.159917
0.112624
0.0840716
0.139915
0.154025
0.132775
0.180388
0.147498
0.19065
0.178838
0.215105
0.211704
0.163774
0.146096
0.182495
0.188177
0.174661
0.133473
0.0384579
0.0375131
0.0323608
0.112454
0.129582
0.194725
0.208377
0.176772
0.095625
0.0574109
0.112603
0.0891078
0.169482
0.202523
0.216613
0.207871
0.205881
0.215828
0.203036
0.180097
0.0914608
0.0925518
0.172933
0.188537
0.209382
0.214812
0.213782
0.172605
0.109771
0.15365
0.12751
0.165901
0.153768
0.169459
0.168468
0.114501
0.150652
0.189519
0.188748
0.165475
0.109946
0.126112
0.18042
0.1939
0.183453
0.125247
0.0959038
0.063791
0.125947
0.120506
0.114495
0.197929
0.221633
0.207636
0.182097
0.109034
0.118832
0.162449
0.169757
0.18269
0.165733
0.160503
0.133427
0.0487227
0.0361132
0.106494
0.0826398
0.161756
0.210905
0.232944
0.228159
0.188694
0.0978019
0.0795238
0.0385693
0.0643316
0.115412
0.0560806
0.0779627
0.0942507
0.0896703
0.0943759
0.0324963
0.0672571
0.0631712
0.00757717
0.0741809
0.159974
0.191377
0.192834
0.133653
0.159493
0.112078
0.134615
0.0871562
0.0739619
0.16956
0.190038
0.178561
0.158384
0.131557
0.115711
0.175646
0.178665
0.102582
0.142069
0.227569
0.264594
0.248189
0.181571
0.180326
0.117624
0.134821
0.118278
0.171092
0.111211
0.114841
0.16685
0.188078
0.142899
0.1421
0.171442
0.209968
0.198566
0.135176
0.0838154
0.0779155
0.0703025
0.090922
0.0946641
0.150162
0.120647
0.0608083
0.0660648
0.106811
0.151526
0.135591
0.179833
0.17642
0.163436
0.179232
0.136158
0.1584
0.103417
0.0970666
0.170581
0.16003
0.205011
0.185408
0.162838
0.117497
0.172841
0.149301
0.211555
0.189379
0.193531
0.231704
0.248915
0.252134
0.249011
0.18104
0.199156
0.12957
0.126398
0.184362
0.18804
0.163858
0.18676
0.123628
0.150291
0.103832
0.0527888
0.0231445
0.0473361
0.10436
0.0811602
0.0391693
0.0497806
0.113469
0.137567
0.197555
0.217351
0.198504
0.143027
0.153157
0.0820629
0.0542282
0.08357
0.146601
0.141935
0.107175
0.143859
0.139477
0.167887
0.169442
0.111598
0.0720004
0.0914773
0.0897438
0.131073
0.0902671
0.0940883
0.13007
0.163893
0.147878
0.141025
0.0546592
0.0733611
0.079563
0.0474236
0.0759603
0.140341
0.142434
0.152424
0.0966946
0.0826532
0.110087
0.0748999
0.0391564
0.0484101
0.0874216
0.0496235
0.0853591
0.13459
0.109991
0.123383
0.0769518
0.134527
0.125664
0.170246
0.176848
0.165598
0.142424
0.0942582
0.110576
0.143534
0.11995
0.116821
0.177131
0.185404
0.197728
0.176399
0.109749
0.0923164
0.156598
0.179994
0.174269
0.190383
0.166407
0.118537
0.144838
0.147322
0.0938588
0.0414245
0.0490087
0.0376713
0.104518
0.133037
0.0946753
0.0964004
0.119634
0.0570091
0.0657287
0.0808923
0.121973
0.0621539
0.0445884
0.0526454
0.0271678
0.0552615
0.116985
0.091228
0.147748
0.140047
0.118174
0.158395
0.13828
0.103415
0.125256
0.107734
0.164085
0.160244
0.0924112
0.138443
0.097346
0.0906163
0.102472
0.0653977
0.0436988
0.0799998
0.0210345
0.0314999
0.0841209
0.128037
0.0906182
0.084482
0.0635609
0.133109
0.139885
0.0671011
0.0842655
0.136124
0.10902
0.144009
0.155877
0.109917
0.11502
0.0971467
0.0219164
0.0237517
0.0335746
0.0776621
0.137176
0.138333
0.140429
0.0849808
0.0590062
0.0406417
0.106049
0.152471
0.129686
0.20041
0.209014
0.195993
0.142008
0.175911
0.164498
0.0954761
0.0980252
0.0515338
0.097067
0.0712558
0.122426
0.111979
0.088332
0.116999
0.0776598
0.101701
0.106941
0.159124
0.168598
0.137928
0.145726
0.119224
0.0332365
0.0574487
0.0452433
0.0423057
0.0843658
0.0284524
0.0534491
0.0426584
0.0845516
0.0572159
0.106763
0.0804855
0.0614418
0.0569391
0.105327
0.0353952
0.042814
0.0609184
0.114445
0.109647
0.137772
0.101523
0.061589
0.0576844
0.143846
0.154462
0.100211
0.0976818
0.129794
0.0763016
0.0997863
0.0807694
0.130535
0.0968546
0.0834666
0.12705
0.118601
0.104105
0.0789045
0.123975
0.0722554
0.0207717
0.027062
0.068366
0.0240404
0.0181736
0.098757
0.106327
0.0721997
0.0746896
0.10951
0.05548
0.0716531
0.138089
0.142973
0.0821918
0.10041
0.11427
0.140804
0.192299
0.194596
0.14283
0.129875
0.144386
0.119417
0.122639
0.161162
0.145921
0.156821
0.138777
0.0952548
0.136615
0.15151
0.112212
0.0424437
0.0347078
0.122861
0.146751
0.144317
0.0910499
0.120021
0.0870709
0.133315
0.154799
0.109273
0.137581
0.0969162
0.0801174
0.128776
0.120303
0.0709418
0.0208928
0.0518763
0.0684074
0.139092
0.103587
0.163692
0.142276
0.100363
0.151784
0.138801
0.155045
0.116749
0.13577
0.118971
0.0632489
0.0841733
0.131831
0.104641
0.126112
0.0850998
0.0501943
0.075871
0.114167
0.0974307
0.149227
0.123354
0.0696999
0.120329
0.108144
0.0170323
-0.000205146
0.0795091
0.0680313
0.0914774
0.0966698
0.0934145
0.142948
0.165402
0.163663
0.152657
0.140455
0.0699182
0.0991446
0.145485
0.094246
0.123875
0.0904629
0.14575
0.130653
0.131825
0.108229
0.0759488
0.12374
0.0925571
0.149337
0.142746
0.138221
0.121024
0.148192
0.133424
0.0728376
0.0849776
0.110369
0.148714
0.109991
0.160167
0.134615
0.136407
0.104242
0.16189
0.144771
0.0689489
0.0527054
0.0932328
0.135916
0.116205
0.0632388
0.0387446
0.0441177
0.0472239
0.0902631
0.117583
0.161382
0.190048
0.172904
0.106292
0.0649834
0.0821309
0.137498
0.145116
0.150351
0.168263
0.167495
0.121878
0.136443
0.149184
0.121923
0.0759763
0.0873017
0.142216
0.133854
0.159962
0.17374
0.160693
0.12022
0.159329
0.146264
0.100171
0.0881937
0.0530955
0.0614797
0.0838407
0.0793078
0.0918353
0.154631
0.15708
0.12627
0.131714
0.107364
0.133451
0.105182
0.101165
0.0487943
0.0566519
0.0683615
0.133483
0.128407
0.0934743
0.158372
0.184984
0.168213
0.16116
0.0916506
0.101736
0.149537
0.11199
0.137614
0.0927079
0.124954
0.0714861
0.0279196
0.02489
0.0936659