/*--------------------------------*- C++ -*----------------------------------*\
| =========                 |                                                 |
| \\      /  F ield         | OpenFOAM: The Open Source CFD Toolbox           |
|  \\    /   O peration     | Version:  v2012                                 |
|   \\  /    A nd           | Website:  www.openfoam.com                      |
|    \\/     M anipulation  |                                                 |
\*---------------------------------------------------------------------------*/
FoamFile
{
    version     2.0;
    format      ascii;
    class       volVectorField;
    location    "50";
    object      U_filtered;
}
// * * * * * * * * * * * * * * * * * * * * * * * * * * * * * * * * * * * * * //

dimensions      [0 1 -1 0 0 0 0];


internalField   nonuniform List<vector> 
65536
(
(0.0539812 -0.0533165 0)
(0.168123 -0.0656068 0)
(0.291069 -0.0734227 0)
(0.415761 -0.0679649 0)
(0.533937 -0.0610001 0)
(0.649914 -0.0561991 0)
(0.765787 -0.048356 0)
(0.864867 -0.0519054 0)
(0.982667 -0.0625951 0)
(1.10125 -0.0697437 0)
(1.22404 -0.0646548 0)
(1.32659 -0.0441959 0)
(1.40835 -0.044198 0)
(1.51792 -0.0510347 0)
(1.61229 -0.0514228 0)
(1.72294 -0.050072 0)
(1.81302 -0.0556958 0)
(1.91302 -0.0598107 0)
(2.00773 -0.0509037 0)
(2.09502 -0.0420041 0)
(2.17768 -0.0383061 0)
(2.25831 -0.042981 0)
(2.34716 -0.0317063 0)
(2.39475 -0.0235199 0)
(2.45435 -0.0428029 0)
(2.54952 -0.0488055 0)
(2.61747 -0.0319098 0)
(2.67469 -0.0280117 0)
(2.73822 -0.0340138 0)
(2.79278 -0.0335997 0)
(2.8417 -0.0367818 0)
(2.91063 -0.0310296 0)
(2.95285 -0.0117484 0)
(2.97655 -0.00830543 0)
(3.01055 -0.0198565 0)
(3.05065 -0.0217602 0)
(3.08353 -0.0226504 0)
(3.11665 -0.0160875 0)
(3.13335 -0.00104238 0)
(3.13298 -0.00334587 0)
(3.15572 -0.0101816 0)
(3.1708 -0.0139705 0)
(3.18731 -0.0156682 0)
(3.20352 -0.00649361 0)
(3.19739 0.00637812 0)
(3.19039 0.00907601 0)
(3.18403 0.0013408 0)
(3.18243 -0.000136453 0)
(3.17944 -0.00126183 0)
(3.17723 -0.00443176 0)
(3.1677 0.00397208 0)
(3.15639 0.00916982 0)
(3.14123 0.00557431 0)
(3.12689 0.00796215 0)
(3.09951 0.0102957 0)
(3.07435 0.012731 0)
(3.04178 0.0110605 0)
(3.01531 0.0107969 0)
(2.99358 0.0239185 0)
(2.94779 0.0217137 0)
(2.92787 0.0154473 0)
(2.89037 0.0172174 0)
(2.86209 0.0145893 0)
(2.81871 0.0120825 0)
(2.7922 0.0150264 0)
(2.75489 0.0129973 0)
(2.73003 0.00685198 0)
(2.71311 0.0176915 0)
(2.67104 0.0282438 0)
(2.61834 0.0211601 0)
(2.58294 0.0171154 0)
(2.53582 0.0264285 0)
(2.4954 0.0259861 0)
(2.46074 0.018258 0)
(2.41691 0.0162529 0)
(2.38068 0.0142565 0)
(2.34148 0.0124898 0)
(2.30139 0.0210258 0)
(2.25436 0.0254039 0)
(2.21309 0.0180798 0)
(2.17559 0.0219631 0)
(2.13042 0.0301231 0)
(2.07889 0.0247726 0)
(2.03781 0.0149585 0)
(2.0015 0.0151234 0)
(1.96672 0.0212132 0)
(1.92272 0.0234106 0)
(1.88186 0.016637 0)
(1.84568 0.00956107 0)
(1.81164 0.0145677 0)
(1.77206 0.0199146 0)
(1.7398 0.0167641 0)
(1.70218 0.0232749 0)
(1.65897 0.0272211 0)
(1.61357 0.0202031 0)
(1.58017 0.0183642 0)
(1.54454 0.0195366 0)
(1.5147 0.0135643 0)
(1.48048 0.0107841 0)
(1.4512 0.0107031 0)
(1.41787 0.00927284 0)
(1.40053 0.00846061 0)
(1.36863 0.0119569 0)
(1.34551 0.0143831 0)
(1.31082 0.0230911 0)
(1.25979 0.0238543 0)
(1.23432 0.00927245 0)
(1.20575 0.0034234 0)
(1.18626 0.0088767 0)
(1.15113 0.0161197 0)
(1.11728 0.0149679 0)
(1.08692 0.0142073 0)
(1.06749 0.00396189 0)
(1.04678 0.00337892 0)
(1.02648 0.0100338 0)
(0.994433 0.0173394 0)
(0.969987 0.012779 0)
(0.955103 0.0050841 0)
(0.94198 0.000235564 0)
(0.924925 0.00032195 0)
(0.909202 0.00884095 0)
(0.881487 0.00902743 0)
(0.855137 0.0131392 0)
(0.828766 0.0167741 0)
(0.797455 0.013712 0)
(0.777524 0.00893938 0)
(0.75935 0.00440426 0)
(0.745644 0.00174478 0)
(0.725041 0.0117809 0)
(0.707965 0.0138529 0)
(0.686115 0.0059502 0)
(0.6722 0.00500741 0)
(0.654098 0.00905079 0)
(0.639073 0.0038207 0)
(0.636893 0.000689533 0)
(0.62713 0.00552066 0)
(0.608402 0.00442012 0)
(0.591829 0.00580072 0)
(0.571483 0.0152461 0)
(0.545127 0.0135181 0)
(0.529038 0.00493878 0)
(0.514713 0.00373201 0)
(0.50583 -0.000302428 0)
(0.497267 -0.0022366 0)
(0.492134 0.00181942 0)
(0.479807 -0.00143175 0)
(0.478416 0.00355689 0)
(0.458926 0.0113927 0)
(0.443639 0.0120585 0)
(0.423364 0.0168795 0)
(0.402494 0.00668618 0)
(0.402068 -0.0014002 0)
(0.394232 -0.00213409 0)
(0.398612 0.0010562 0)
(0.383397 0.00581126 0)
(0.374951 0.00194351 0)
(0.361707 0.00087245 0)
(0.358485 -0.00164425 0)
(0.354057 -0.000395669 0)
(0.341536 0.00213232 0)
(0.332057 0.00236048 0)
(0.318128 0.00975646 0)
(0.300499 0.0127167 0)
(0.279131 0.0041385 0)
(0.274416 -0.0010729 0)
(0.270466 -0.00230177 0)
(0.278661 -0.00607318 0)
(0.281873 -0.00307993 0)
(0.273404 0.00245612 0)
(0.264432 0.00850283 0)
(0.24248 0.00150341 0)
(0.23912 0.00543675 0)
(0.220821 0.00828515 0)
(0.209721 0.00330603 0)
(0.215908 -0.00482828 0)
(0.211737 -0.00560948 0)
(0.210187 -0.00205505 0)
(0.207344 0.00761746 0)
(0.190183 0.0103595 0)
(0.181481 -0.00208329 0)
(0.184244 -0.00755018 0)
(0.175736 -0.000254642 0)
(0.171949 -0.00323266 0)
(0.17675 -0.00750142 0)
(0.187805 -0.00192194 0)
(0.177934 0.00851987 0)
(0.163251 0.0109043 0)
(0.151723 0.00939012 0)
(0.137248 0.00544128 0)
(0.131991 -0.00205823 0)
(0.129121 -0.0050524 0)
(0.125965 -0.00220479 0)
(0.125788 -0.00520851 0)
(0.124295 -0.00378101 0)
(0.125062 -0.00103939 0)
(0.120166 -0.00338619 0)
(0.122756 0.0053356 0)
(0.104913 0.01439 0)
(0.0949734 0.00840159 0)
(0.0835363 0.00139646 0)
(0.0777378 -0.00212092 0)
(0.0825916 -0.00441541 0)
(0.0753463 -0.00848973 0)
(0.0938172 -0.00642693 0)
(0.0938007 0.0104878 0)
(0.0749095 0.00884159 0)
(0.0736534 -0.00327685 0)
(0.0712995 -0.00658526 0)
(0.0713814 -0.00356926 0)
(0.0676801 0.00357268 0)
(0.061362 0.000998764 0)
(0.0738975 -0.00470176 0)
(0.0778498 0.00306944 0)
(0.0694137 0.00868047 0)
(0.0632114 0.00398766 0)
(0.0532461 -0.00444955 0)
(0.0476632 -0.00687854 0)
(0.0448368 0.000808196 0)
(0.0320574 0.0106286 0)
(0.0174715 0.00500121 0)
(0.0209591 -0.00322666 0)
(0.0243537 -0.000157204 0)
(0.0118815 -0.000956718 0)
(0.0116211 -0.00358396 0)
(0.0154261 -0.00185338 0)
(0.00966854 0.0058344 0)
(0.00809659 0.00632258 0)
(0.00611176 -0.00415578 0)
(0.0113949 -0.0044883 0)
(0.00743699 -0.0056325 0)
(0.0205115 -0.012247 0)
(0.0346865 -0.00498691 0)
(0.025824 0.00966159 0)
(0.0111885 0.0143239 0)
(0.00040359 0.000807477 0)
(0.00417804 -0.00290477 0)
(-0.00151713 0.000807878 0)
(-0.00436958 -0.00422946 0)
(-2.11914e-05 -0.00513197 0)
(-0.00270726 -0.00140592 0)
(-0.00373304 0.00365389 0)
(-0.00250916 -0.000505629 0)
(-0.00583966 -0.00734173 0)
(0.00123122 -0.00703052 0)
(0.0110394 0.00038276 0)
(0.0119689 0.00622436 0)
(0.00722853 0.00226532 0)
(0.00573834 -0.00739714 0)
(0.00635803 -0.00632384 0)
(0.00790659 0.00321447 0)
(-0.000589034 0.0143467 0)
(-0.0230812 0.00834646 0)
(-0.0161952 -0.00571815 0)
(-0.0200677 -0.00889678 0)
(-0.0127553 -0.00472181 0)
(-0.0126385 0.00482872 0)
(-0.0242853 0.000229597 0)
(-0.0248254 -0.000941693 0)
(-0.0215566 -0.00634799 0)
(-0.0171524 -0.00729617 0)
(-0.0136029 -0.00126046 0)
(-0.0144489 0.00582308 0)
(-0.025203 -0.00600223 0)
(-0.0167958 -0.00807344 0)
(-0.0222275 0.00262463 0)
(-0.0224649 0.00231295 0)
(-0.0248666 -0.00393515 0)
(-0.0263368 -0.00252935 0)
(-0.0267802 0.00435497 0)
(-0.0288521 0.0047627 0)
(-0.0218604 -0.00725773 0)
(-0.0147454 -0.00845743 0)
(-0.0196004 0.00464034 0)
(-0.03379 0.00736894 0)
(-0.04361 -0.000497376 0)
(-0.0471472 0.00146535 0)
(-0.0447204 -0.000578866 0)
(-0.0420317 -0.00905717 0)
(-0.0295751 -0.00770791 0)
(-0.0241465 0.000116872 0)
(-0.0209808 0.00140337 0)
(-0.0247418 0.000223821 0)
(-0.0297737 0.00619002 0)
(-0.0514241 0.00806064 0)
(-0.0465804 -0.0077978 0)
(-0.0326571 -0.0119534 0)
(-0.0280338 -0.00516761 0)
(-0.0263086 0.00696711 0)
(-0.0369829 0.00385025 0)
(-0.0318337 -0.00139708 0)
(-0.0417519 0.00394327 0)
(-0.0346129 0.000154569 0)
(-0.0296802 -0.00819266 0)
(-0.0266379 -0.00329269 0)
(-0.0366792 0.00701372 0)
(-0.0428664 0.00354937 0)
(-0.0428555 -0.00135393 0)
(-0.0496705 0.00113849 0)
(-0.0516462 -0.00493133 0)
(-0.0453708 -0.00493054 0)
(-0.0517521 0.00457703 0)
(-0.0556605 0.00291432 0)
(-0.0561704 0.000531139 0)
(-0.0649236 0.0010315 0)
(-0.0540697 -0.0057709 0)
(-0.0400079 -0.00964712 0)
(-0.0398867 0.000201142 0)
(-0.0439879 0.00382509 0)
(-0.0495543 -0.00119588 0)
(-0.046875 -0.00345027 0)
(-0.0410014 -0.00555914 0)
(-0.0336873 -0.00996509 0)
(-0.0198907 -0.005533 0)
(-0.0251482 0.00176384 0)
(-0.0245836 0.00345053 0)
(-0.0304038 -0.00348436 0)
(-0.0330139 -0.00110753 0)
(-0.0409885 0.00401012 0)
(-0.0436709 0.00700621 0)
(-0.0460497 0.00710353 0)
(-0.052362 0.00183443 0)
(-0.0539579 -0.00587359 0)
(-0.0541217 -0.00606133 0)
(-0.0552962 0.00192884 0)
(-0.0509757 -0.00397314 0)
(-0.0487518 -0.00547574 0)
(-0.0502155 -0.00599887 0)
(-0.046261 -0.00591917 0)
(-0.0455679 -0.0085571 0)
(-0.0335827 -0.00124638 0)
(-0.0316039 0.00457962 0)
(-0.038099 -0.00129514 0)
(-0.0289488 -0.0101908 0)
(-0.0196584 -0.00790577 0)
(-0.0157124 -0.00442687 0)
(-0.015608 -0.00493287 0)
(-0.0181173 0.000159517 0)
(-0.0274439 0.00728531 0)
(-0.0399707 0.00205907 0)
(-0.0527821 0.00629767 0)
(-0.0570717 0.00186113 0)
(-0.0578438 -0.00947441 0)
(-0.0448843 -0.00889785 0)
(-0.0398213 -0.00138178 0)
(-0.0324307 0.00461975 0)
(-0.0338072 0.00852951 0)
(-0.037389 -0.00188299 0)
(-0.035929 -0.00855531 0)
(-0.0234598 -0.00693972 0)
(-0.0125685 -0.00507291 0)
(-0.0177828 -0.000674841 0)
(-0.0202779 0.00726625 0)
(-0.0316009 0.00620277 0)
(-0.0352256 -0.000845316 0)
(-0.0402779 -0.00152969 0)
(-0.0354509 -0.00417552 0)
(-0.0381478 -0.0106008 0)
(-0.0271495 -0.00187899 0)
(-0.033661 0.00553239 0)
(-0.0402543 -0.000521555 0)
(-0.0326288 -0.00147434 0)
(-0.0395088 -0.00178729 0)
(-0.0387387 -0.00273092 0)
(-0.0334364 -0.00552478 0)
(-0.0210368 -0.00783287 0)
(-0.0192091 -0.00105339 0)
(-0.0154214 -0.00120356 0)
(-0.0110177 -0.00598433 0)
(-0.0112608 -0.00697359 0)
(-0.0113262 -0.00487164 0)
(-0.0109041 0.00284994 0)
(-0.0189705 0.00605445 0)
(-0.0201884 0.00482153 0)
(-0.0267315 -0.00259205 0)
(-0.0223539 -0.00442346 0)
(-0.0170432 -0.00221331 0)
(-0.0155858 -0.00272465 0)
(-0.0137768 -0.00460029 0)
(-0.0166672 -0.00382882 0)
(-0.0132213 0.00336705 0)
(-0.0250551 0.00822085 0)
(-0.029381 0.00277357 0)
(-0.0202041 0.00180808 0)
(-0.0287823 -0.000280576 0)
(-0.0235022 -0.0109588 0)
(-0.00931544 -0.0111421 0)
(-0.00734564 0.0023808 0)
(-0.0194775 0.00803564 0)
(-0.0326815 0.00349838 0)
(-0.0210885 -0.00760685 0)
(-0.0180419 -0.0084471 0)
(-0.00670435 -0.000812669 0)
(0.00569029 0.00155812 0)
(0.00681512 -0.00333174 0)
(0.00622988 -0.00020908 0)
(0.00293907 -0.00229497 0)
(0.00145887 -0.00265666 0)
(0.00182827 0.00468264 0)
(-0.00914599 0.00601874 0)
(-0.0123753 -0.00014687 0)
(-0.0182995 -0.00339774 0)
(-0.0188929 -0.000580822 0)
(-0.0254217 0.000940204 0)
(-0.0218806 -0.00666974 0)
(-0.0135634 -0.0088121 0)
(-0.015481 -0.00220159 0)
(-0.0148373 0.00275698 0)
(-0.0198239 0.000515761 0)
(-0.0128033 -0.00252765 0)
(-0.00793774 0.00223516 0)
(-0.0110526 0.00140282 0)
(-0.00764029 -0.00342493 0)
(-0.00734763 -0.00816738 0)
(-0.00264532 -0.00703309 0)
(-0.0048391 0.00494132 0)
(-0.0193868 0.00628487 0)
(-0.0168155 -0.00174214 0)
(-0.00631616 -0.00984011 0)
(-0.00206663 -0.00536675 0)
(0.00189881 0.00398288 0)
(-0.00726186 0.00531371 0)
(-0.00370477 -0.00224871 0)
(-0.00451954 -0.00366819 0)
(-0.00796137 -0.00186653 0)
(-0.00190682 -0.00487061 0)
(-0.0035947 -0.00322614 0)
(0.00333402 0.00339957 0)
(-0.00360715 0.00754542 0)
(-0.00303052 0.00232514 0)
(-0.00265099 -0.00214364 0)
(-0.00773242 0.00174359 0)
(-0.00687049 0.00150731 0)
(-0.00646371 -0.0045351 0)
(9.97525e-05 -0.00732312 0)
(-0.000669866 -0.00192927 0)
(0.00289424 -6.02014e-06 0)
(-0.00480638 -0.0031383 0)
(-0.0011104 0.00486224 0)
(-0.011611 0.00923421 0)
(-0.0165351 -0.0007077 0)
(-0.00899356 -0.00139007 0)
(-0.0175829 -0.00449009 0)
(-0.00930424 -0.00517249 0)
(-0.0105091 0.000579076 0)
(-0.0127277 0.00216676 0)
(-0.011695 -0.00277285 0)
(-0.00519636 -0.00636604 0)
(0.000986201 0.00110983 0)
(0.0027365 0.00464535 0)
(-0.00479291 -0.000900436 0)
(-0.00158823 -0.00909531 0)
(0.00449825 -0.0100156 0)
(0.0117934 -0.00242122 0)
(0.00922072 0.00358117 0)
(0.00107053 0.00271455 0)
(0.00629239 -0.00340224 0)
(0.0109899 0.00277413 0)
(0.00111932 0.00314574 0)
(-0.00251866 -0.00398158 0)
(-0.000269908 -0.00519567 0)
(-0.00306779 -0.00116288 0)
(-0.00150634 -0.00210481 0)
(-0.0038502 0.00522954 0)
(-0.00700596 0.0054107 0)
(-0.0098987 -3.0559e-05 0)
(-0.0179478 0.00179875 0)
(-0.0131082 -0.00519894 0)
(-0.00338552 -0.00856688 0)
(-0.00162258 -0.00614494 0)
(0.00551986 -0.00860078 0)
(0.0135338 -0.00150627 0)
(0.0194766 0.00353191 0)
(0.0121139 -0.00390562 0)
(0.0148554 0.00181327 0)
(0.0124406 0.00511705 0)
(0.00101582 -0.00074476 0)
(0.000639273 -0.00218582 0)
(-0.000683728 -0.00540539 0)
(0.000229095 -0.0067757 0)
(0.00439652 0.00118489 0)
(-0.00102753 0.00110529 0)
(-0.00418876 0.00652064 0)
(-0.0174218 0.00951424 0)
(-0.0267005 0.00182892 0)
(-0.0186787 -0.00788625 0)
(-0.0144239 -0.00958613 0)
(-0.0135441 -0.00481677 0)
(-0.0149338 -0.00883049 0)
(0.0036912 -0.0106595 0)
(0.0144861 0.000533634 0)
(0.00497515 -0.000332806 0)
(0.006225 -0.00393155 0)
(0.0132769 -0.00195243 0)
(0.0105767 0.00102077 0)
(0.000189779 -0.000699328 0)
(-0.00571511 0.00375334 0)
(-0.0145868 -9.27958e-05 0)
(-0.0140874 -0.0076569 0)
(-0.0122368 -0.0117962 0)
(0.000305308 -0.00813531 0)
(0.0119097 -0.00530537 0)
(0.0240265 0.0022721 0)
(0.0200907 0.0122746 0)
(0.000104128 0.00773202 0)
(0.00261914 -0.00174348 0)
(-0.00155903 -0.00276201 0)
(-0.0119089 0.000995613 0)
(-0.00803062 -0.00576064 0)
(0.00223398 -0.0117702 0)
(0.00935737 -0.00812847 0)
(0.0168812 0.000425281 0)
(0.0108576 0.0126823 0)
(0.0738635 -0.182677 0)
(0.193104 -0.175714 0)
(0.286088 -0.178107 0)
(0.384488 -0.17918 0)
(0.492594 -0.178152 0)
(0.605865 -0.180436 0)
(0.737125 -0.175382 0)
(0.866485 -0.178913 0)
(0.995506 -0.179427 0)
(1.08841 -0.175332 0)
(1.19143 -0.175518 0)
(1.31012 -0.149487 0)
(1.41583 -0.153899 0)
(1.54238 -0.157104 0)
(1.63235 -0.158722 0)
(1.75104 -0.15876 0)
(1.83843 -0.141096 0)
(1.90616 -0.139564 0)
(1.97658 -0.13639 0)
(2.06163 -0.133308 0)
(2.165 -0.129934 0)
(2.25095 -0.132604 0)
(2.33596 -0.112899 0)
(2.41614 -0.0969001 0)
(2.49311 -0.123261 0)
(2.55896 -0.123848 0)
(2.60941 -0.102724 0)
(2.68977 -0.102467 0)
(2.75857 -0.0915695 0)
(2.7965 -0.0755568 0)
(2.82778 -0.0871372 0)
(2.8758 -0.0869855 0)
(2.92102 -0.062694 0)
(2.98274 -0.0582724 0)
(3.02966 -0.0618948 0)
(3.05879 -0.0560699 0)
(3.08949 -0.0480298 0)
(3.0964 -0.0384425 0)
(3.12939 -0.0240231 0)
(3.15302 -0.024627 0)
(3.17583 -0.0324513 0)
(3.19077 -0.0215617 0)
(3.18174 -0.0205184 0)
(3.18374 -0.00753137 0)
(3.17719 0.00229353 0)
(3.20174 -0.00109681 0)
(3.21092 0.00176735 0)
(3.19825 0.000442737 0)
(3.20291 0.00294141 0)
(3.18335 0.0130803 0)
(3.15813 0.0140657 0)
(3.16191 0.0150495 0)
(3.14955 0.0217139 0)
(3.12993 0.0325949 0)
(3.09585 0.0417017 0)
(3.06091 0.0435823 0)
(3.02895 0.0468487 0)
(2.98201 0.0335425 0)
(2.97694 0.0403025 0)
(2.96879 0.041602 0)
(2.94919 0.0420907 0)
(2.91061 0.0491444 0)
(2.87961 0.0586504 0)
(2.81614 0.0587888 0)
(2.78273 0.0502835 0)
(2.74308 0.0497248 0)
(2.69804 0.0355396 0)
(2.66838 0.0402886 0)
(2.65732 0.0588702 0)
(2.62387 0.0650808 0)
(2.57389 0.0659258 0)
(2.52494 0.0612455 0)
(2.51774 0.0471165 0)
(2.4941 0.0597051 0)
(2.43179 0.0639233 0)
(2.38821 0.0608377 0)
(2.32528 0.0659872 0)
(2.26855 0.0649814 0)
(2.24163 0.0611901 0)
(2.20398 0.0588165 0)
(2.15481 0.0573643 0)
(2.12901 0.0646576 0)
(2.0986 0.0666232 0)
(2.05394 0.061291 0)
(1.99908 0.055374 0)
(1.96624 0.055853 0)
(1.93533 0.0606858 0)
(1.90016 0.0592456 0)
(1.84459 0.0602538 0)
(1.78459 0.0584554 0)
(1.75107 0.0506354 0)
(1.72436 0.0514813 0)
(1.68127 0.0568314 0)
(1.66328 0.0579602 0)
(1.62789 0.0560823 0)
(1.59137 0.0464278 0)
(1.56713 0.0439451 0)
(1.54407 0.0486776 0)
(1.49019 0.0521224 0)
(1.45053 0.0509654 0)
(1.40005 0.0417351 0)
(1.38026 0.030904 0)
(1.35686 0.042457 0)
(1.31099 0.0420262 0)
(1.29454 0.0438597 0)
(1.27899 0.0456328 0)
(1.25753 0.042634 0)
(1.20281 0.04242 0)
(1.16306 0.0441207 0)
(1.12273 0.0495686 0)
(1.10112 0.0325803 0)
(1.09669 0.0284585 0)
(1.07504 0.0326371 0)
(1.02778 0.0350789 0)
(1.00435 0.0296034 0)
(0.988897 0.0294131 0)
(0.985722 0.0210795 0)
(0.977079 0.0199323 0)
(0.951768 0.0267929 0)
(0.907575 0.0305286 0)
(0.873862 0.0319985 0)
(0.862448 0.0264305 0)
(0.846729 0.0297333 0)
(0.832672 0.0338263 0)
(0.819001 0.0333877 0)
(0.799427 0.02713 0)
(0.781974 0.0274822 0)
(0.746046 0.0322151 0)
(0.70791 0.0266709 0)
(0.72062 0.0235989 0)
(0.699557 0.0286309 0)
(0.673981 0.0244703 0)
(0.657822 0.0226093 0)
(0.646882 0.00991907 0)
(0.633186 0.00802113 0)
(0.620373 0.0183027 0)
(0.605978 0.0274531 0)
(0.568436 0.0268238 0)
(0.561018 0.0225137 0)
(0.567445 0.023791 0)
(0.552702 0.0215973 0)
(0.532567 0.0161807 0)
(0.521584 0.0156949 0)
(0.488192 0.0134762 0)
(0.477793 0.0132214 0)
(0.457795 0.0111278 0)
(0.442645 0.0138997 0)
(0.433205 0.0186577 0)
(0.430484 0.0143909 0)
(0.429386 0.0196597 0)
(0.43099 0.00995034 0)
(0.421929 0.00464893 0)
(0.403524 0.000416233 0)
(0.403587 0.00497228 0)
(0.386431 0.0134471 0)
(0.383854 0.0158594 0)
(0.350701 0.0116001 0)
(0.355749 -0.00181061 0)
(0.347153 0.0130062 0)
(0.323809 0.0160166 0)
(0.317244 0.0163767 0)
(0.29097 0.0164119 0)
(0.301612 0.0191818 0)
(0.28635 0.0150257 0)
(0.281043 -0.00328402 0)
(0.277743 -0.00636023 0)
(0.277073 -0.00992682 0)
(0.270082 0.00600287 0)
(0.250338 0.00632112 0)
(0.262379 0.0185473 0)
(0.236326 0.020613 0)
(0.222489 0.00904974 0)
(0.229103 0.00494878 0)
(0.235201 6.09622e-05 0)
(0.238003 0.000370768 0)
(0.214643 0.00939978 0)
(0.195355 0.0041574 0)
(0.197099 0.00564698 0)
(0.204309 0.0112096 0)
(0.203473 0.0058066 0)
(0.182237 0.00914625 0)
(0.158477 0.00751354 0)
(0.158236 -0.00681839 0)
(0.158118 -0.0166524 0)
(0.158418 -0.00602323 0)
(0.160542 0.00855615 0)
(0.169325 0.0086403 0)
(0.172084 0.00935564 0)
(0.16841 0.00727433 0)
(0.166315 0.00358322 0)
(0.1423 0.00423934 0)
(0.133924 -0.000640848 0)
(0.131785 0.00189463 0)
(0.108322 0.000658969 0)
(0.113125 0.00118335 0)
(0.0988261 0.0029599 0)
(0.0958415 0.00672417 0)
(0.101041 0.0114725 0)
(0.117653 0.0110149 0)
(0.102628 0.0138574 0)
(0.0901629 0.00016288 0)
(0.0896825 0.00402596 0)
(0.0650603 -0.00625187 0)
(0.0699533 -0.0158967 0)
(0.0785138 0.00384547 0)
(0.0925217 0.00737563 0)
(0.0908359 0.00233683 0)
(0.0701513 0.00602038 0)
(0.0532184 0.00297082 0)
(0.049172 0.00302667 0)
(0.0622125 -0.0109957 0)
(0.0701699 -0.02129 0)
(0.075485 -0.00709807 0)
(0.0853307 0.000654779 0)
(0.0952415 0.00757157 0)
(0.0796004 0.0161133 0)
(0.04617 0.0103136 0)
(0.028671 0.0100515 0)
(0.0245891 0.0097358 0)
(0.0363782 -0.000330139 0)
(0.0315993 -0.0077475 0)
(0.0334418 0.00597383 0)
(0.0181882 0.010954 0)
(0.010441 -0.00178504 0)
(0.00322348 0.00250157 0)
(-0.00353881 -0.0037022 0)
(0.0323119 -0.00377181 0)
(0.0250226 -1.90184e-05 0)
(0.0189786 0.00257427 0)
(0.00323585 -0.00395257 0)
(0.0061917 -0.0222454 0)
(0.00827833 -0.00337918 0)
(-0.00221673 0.00741913 0)
(0.0211302 0.00882753 0)
(0.0230499 0.00473482 0)
(0.0103762 0.00364527 0)
(0.00336748 0.00639963 0)
(0.00141207 0.00144134 0)
(-0.0148609 0.00251027 0)
(-0.023739 0.00353761 0)
(-0.0260411 -0.00526742 0)
(-0.000828844 -0.00630395 0)
(-0.00951935 0.00091376 0)
(-0.024661 -0.01122 0)
(-0.0112836 -0.0136008 0)
(0.00429097 -0.00624885 0)
(0.0303814 -0.00192147 0)
(0.0151901 0.00553882 0)
(-0.00754153 0.000133696 0)
(-0.0102835 0.00121257 0)
(-0.00406718 0.0155808 0)
(-0.003562 0.00476329 0)
(0.00579464 -0.00156782 0)
(-0.0190733 0.00247528 0)
(-0.0302472 -0.00978547 0)
(-0.020047 -0.00311638 0)
(-0.0071619 -0.00493319 0)
(-0.00113979 -0.00313994 0)
(-0.00545694 -0.00358219 0)
(-0.0152264 -0.00337218 0)
(-0.024307 -0.010501 0)
(0.000703724 0.00102966 0)
(-0.00676519 0.00504152 0)
(-0.0281566 0.00298268 0)
(-0.0424521 0.00177955 0)
(-0.0240275 -0.00310197 0)
(-0.026279 0.00598987 0)
(-0.0428175 0.000378622 0)
(-0.0358226 -0.00694555 0)
(-0.0241183 -0.00655799 0)
(-0.0103141 -0.00762085 0)
(-0.0301858 0.00299616 0)
(-0.0435325 0.00250304 0)
(-0.0226464 0.00819782 0)
(-0.0384556 0.0100135 0)
(-0.0502364 -0.00430388 0)
(-0.0307197 -0.00708363 0)
(-0.0436979 -0.00891687 0)
(-0.0479372 -0.0128135 0)
(-0.0430638 -0.0115441 0)
(-0.024189 -0.00598095 0)
(-0.0289774 0.00455014 0)
(-0.0346296 0.00948192 0)
(-0.030107 0.00313708 0)
(-0.0175903 -0.0149191 0)
(-0.0241821 -0.00855341 0)
(-0.0391789 -0.00284891 0)
(-0.0362643 0.000670064 0)
(-0.0259663 -0.00136478 0)
(-0.0248959 0.00219784 0)
(-0.03616 -0.00478449 0)
(-0.00525274 -0.0171134 0)
(-0.00891351 -0.00327685 0)
(-0.0331826 0.00606035 0)
(-0.0392643 0.00594383 0)
(-0.0243321 0.000121013 0)
(-0.0345167 0.006111 0)
(-0.0439157 0.00589262 0)
(-0.0455001 -0.00134196 0)
(-0.0564732 0.00252595 0)
(-0.0674519 0.00378391 0)
(-0.0521334 -0.0012809 0)
(-0.0603469 0.00719538 0)
(-0.064911 -0.00783322 0)
(-0.0410716 -0.0207724 0)
(-0.0435805 -0.00786707 0)
(-0.0553609 0.00113033 0)
(-0.040751 0.00177585 0)
(-0.045217 0.0013743 0)
(-0.0463286 -0.0091906 0)
(-0.0372672 -0.0100852 0)
(-0.0452219 -0.0150119 0)
(-0.0408352 -0.00650275 0)
(-0.0501632 -0.00267577 0)
(-0.0261839 -0.0018964 0)
(-0.0361524 0.00876949 0)
(-0.0543065 0.00922442 0)
(-0.0564478 0.00358496 0)
(-0.0474694 -0.00527298 0)
(-0.0241307 -0.00364241 0)
(-0.0211621 0.00329342 0)
(-0.0316844 0.00476952 0)
(-0.054463 0.00489302 0)
(-0.0648443 -0.00826694 0)
(-0.0352698 -0.0111723 0)
(-0.0502391 0.00382732 0)
(-0.0600232 0.00183425 0)
(-0.0683965 -0.00142371 0)
(-0.0731317 -0.0215738 0)
(-0.0425636 -0.0244684 0)
(-0.0245332 -0.00727898 0)
(-0.0124919 -0.0111803 0)
(-0.0116134 -0.0114477 0)
(-0.0264358 -0.00837857 0)
(-0.018945 -0.00648583 0)
(-0.0236475 0.00260101 0)
(-0.0393413 -0.00413355 0)
(-0.0147765 0.00471182 0)
(-0.0303433 0.0178062 0)
(-0.0456409 0.00671966 0)
(-0.0304558 0.00096509 0)
(-0.0469773 -0.00412205 0)
(-0.0577834 -0.0100491 0)
(-0.0538924 -0.0101123 0)
(-0.0398815 -0.00745611 0)
(-0.0173129 -0.00226797 0)
(-0.00735127 0.00271342 0)
(-0.0273575 -0.00728423 0)
(-0.0203435 -0.0192274 0)
(-0.0153459 -0.00279288 0)
(-0.0360888 0.00503307 0)
(-0.0349871 0.00359262 0)
(-0.0231308 0.00541274 0)
(-0.0293055 0.00604734 0)
(-0.0423772 -0.00166798 0)
(-0.0331399 -0.00150716 0)
(-0.0560839 -0.00226997 0)
(-0.0612332 -0.00623905 0)
(-0.043719 0.000226336 0)
(-0.0383995 -0.00746541 0)
(-0.0263107 -0.0083934 0)
(-0.0290148 0.00178494 0)
(-0.0349684 -0.00994201 0)
(-0.0170061 -0.0161354 0)
(-0.0194656 -0.0111323 0)
(-0.0161925 -0.0139593 0)
(0.00407993 -0.0114262 0)
(0.00215717 -0.000869934 0)
(-0.0128441 0.0049845 0)
(-0.0339122 0.0043873 0)
(-0.0405567 0.00318036 0)
(-0.03405 -0.00581657 0)
(-0.00295384 -0.000483288 0)
(-0.0131579 0.00441291 0)
(-0.0162138 -0.00650765 0)
(-0.0130835 -0.00607395 0)
(-0.0155764 -0.00228072 0)
(-0.0186444 0.00288968 0)
(-0.035216 0.000280219 0)
(-0.0347888 0.00290544 0)
(-0.0328348 0.00591409 0)
(-0.0176056 -0.00892969 0)
(-0.00503646 -0.00497276 0)
(0.00190483 0.00202946 0)
(-0.00495229 -0.00951518 0)
(-0.0195105 -0.00482545 0)
(-0.0340759 0.00708968 0)
(-0.0250947 0.00582111 0)
(-0.0141651 -0.00228372 0)
(-0.00898317 -0.00711036 0)
(-0.0251944 -0.00616349 0)
(-0.0201669 -0.0221458 0)
(0.0219594 -0.0146654 0)
(0.013564 0.00074282 0)
(0.00959114 0.00085602 0)
(0.00693329 0.00406684 0)
(-0.0114043 0.000709374 0)
(-0.009324 0.00222927 0)
(-0.00353761 0.00446182 0)
(0.00283409 0.00589384 0)
(-0.0184361 0.00751532 0)
(-0.0276258 0.00404395 0)
(-0.0286266 -0.000483894 0)
(-0.0186722 -0.00803155 0)
(-0.0336858 -9.25639e-05 0)
(-0.0436289 2.14739e-05 0)
(-0.0370475 -0.000691906 0)
(-0.0304232 -0.00866644 0)
(-0.0140241 -0.0186301 0)
(0.000296774 -0.0120223 0)
(0.0154452 -0.00314314 0)
(0.021742 -0.00191252 0)
(0.00861599 0.00170438 0)
(-0.0134472 0.00254205 0)
(-0.0246685 0.00897408 0)
(-0.0159419 -0.00632036 0)
(0.00569069 -0.0141671 0)
(5.73276e-05 -0.00691347 0)
(-0.0135187 -0.00452923 0)
(-0.00706202 0.000692581 0)
(6.671e-06 -0.00328504 0)
(0.0147675 -0.000918804 0)
(-0.00850221 0.00736748 0)
(-0.0153141 -0.000344895 0)
(-0.0142171 -0.000335566 0)
(-0.0310686 -0.00276352 0)
(-0.0191896 -0.00456014 0)
(-0.0114351 -0.00305046 0)
(0.0101069 -0.00403568 0)
(-0.00244129 0.00446154 0)
(-0.00872219 -0.00247879 0)
(0.00424905 -0.00866646 0)
(0.00482739 -0.00758122 0)
(-0.000263983 -0.00354372 0)
(-0.0117407 -0.00539348 0)
(0.00533905 -0.00124573 0)
(-0.0115528 0.00245095 0)
(-0.0107217 -0.00281513 0)
(0.0103562 0.00265724 0)
(0.010488 -0.00471958 0)
(0.0175967 0.00126494 0)
(0.00395357 0.00469039 0)
(-0.0078419 -0.00235586 0)
(-0.0126274 0.00269314 0)
(-0.0119718 -0.000882874 0)
(-0.008483 -0.00388889 0)
(-0.0131189 -0.00624225 0)
(-0.0151076 -0.00804228 0)
(0.00681481 -0.00119077 0)
(0.00400847 0.00561955 0)
(-0.00980977 -0.000645861 0)
(-0.0274276 -0.00321179 0)
(-0.0336153 -0.00512743 0)
(-0.0211309 -0.00710731 0)
(0.000663965 -0.00938609 0)
(0.00821568 -0.00955005 0)
(0.0108959 -0.00652115 0)
(0.0285784 -0.00506082 0)
(0.0321451 0.00269927 0)
(0.00401161 0.00578991 0)
(-0.000658422 -7.61497e-05 0)
(-0.0038365 0.00222973 0)
(-0.0142948 -0.00166346 0)
(0.0136787 -0.00214949 0)
(0.00335791 0.00945942 0)
(-0.00628169 -0.000861328 0)
(0.0119474 -0.0114029 0)
(-0.00126111 -0.00506885 0)
(-0.00538085 -0.0052898 0)
(-0.00667177 -0.0104489 0)
(-0.0114244 -0.0170341 0)
(0.022475 -0.00635908 0)
(0.00779426 0.00394229 0)
(9.36852e-05 -0.00949072 0)
(0.0273856 0.000291256 0)
(0.00864427 0.00854841 0)
(-0.00153909 0.00163468 0)
(-0.0100809 0.00387256 0)
(-0.0344582 -0.00128904 0)
(-0.0307891 -0.00380133 0)
(-0.0241844 -0.010327 0)
(-0.0133979 -0.00286794 0)
(-0.00384234 0.00361788 0)
(0.00792133 -0.00666031 0)
(0.0135129 -0.00864787 0)
(-0.00359664 -0.000297386 0)
(-0.019868 0.00262034 0)
(-0.0249502 -0.0136223 0)
(-0.0268202 -0.0217231 0)
(-0.0207657 -0.005107 0)
(-0.0139118 0.000715295 0)
(-0.00234919 -0.0135712 0)
(0.0113556 -0.00834368 0)
(0.0127376 -0.00104351 0)
(0.0194231 -0.00372459 0)
(0.023196 0.00762967 0)
(0.0135009 0.00683725 0)
(0.00682811 0.00297001 0)
(-0.0213234 -0.00301876 0)
(-0.0252123 -0.0177844 0)
(-0.00887681 -0.0191505 0)
(-0.000182993 -0.0121698 0)
(0.0233757 0.00822704 0)
(0.0239556 0.00688238 0)
(0.0332298 0.000359391 0)
(0.0145352 0.0151177 0)
(-0.00536548 0.00340486 0)
(0.00998412 -0.0100638 0)
(-0.00207874 -0.00765015 0)
(-0.015256 -0.00824213 0)
(-0.0140808 -0.00425258 0)
(-0.00494289 0.0120322 0)
(0.0719736 -0.317603 0)
(0.18712 -0.28094 0)
(0.290153 -0.270067 0)
(0.394757 -0.280271 0)
(0.501339 -0.290852 0)
(0.611739 -0.308125 0)
(0.737501 -0.318846 0)
(0.869689 -0.317637 0)
(0.991871 -0.289719 0)
(1.09146 -0.265053 0)
(1.19168 -0.274534 0)
(1.30634 -0.267755 0)
(1.42224 -0.282236 0)
(1.549 -0.270926 0)
(1.64398 -0.263466 0)
(1.7513 -0.262048 0)
(1.83806 -0.215983 0)
(1.91153 -0.202416 0)
(1.98052 -0.21143 0)
(2.06436 -0.229859 0)
(2.16569 -0.225956 0)
(2.25088 -0.218042 0)
(2.33241 -0.204553 0)
(2.42795 -0.186789 0)
(2.51194 -0.193778 0)
(2.56025 -0.176201 0)
(2.60623 -0.177111 0)
(2.68481 -0.185941 0)
(2.7461 -0.146503 0)
(2.7934 -0.110636 0)
(2.83211 -0.121873 0)
(2.86645 -0.131863 0)
(2.91899 -0.126667 0)
(2.98574 -0.121208 0)
(3.02717 -0.0990274 0)
(3.05661 -0.0854054 0)
(3.08985 -0.0626742 0)
(3.09451 -0.0593841 0)
(3.1332 -0.0628315 0)
(3.16596 -0.05328 0)
(3.17513 -0.0503727 0)
(3.18936 -0.022322 0)
(3.18391 -0.0117393 0)
(3.18107 -0.0048511 0)
(3.18611 -0.0141035 0)
(3.21428 -0.0270237 0)
(3.22349 0.00234415 0)
(3.20743 0.00434729 0)
(3.20541 0.00980149 0)
(3.1876 0.0390426 0)
(3.16221 0.0245431 0)
(3.16031 0.0175984 0)
(3.14645 0.0374365 0)
(3.12967 0.0613681 0)
(3.09715 0.0786025 0)
(3.059 0.0791384 0)
(3.02833 0.0889801 0)
(2.98564 0.0609123 0)
(2.97721 0.040999 0)
(2.97777 0.0512271 0)
(2.94789 0.0754963 0)
(2.90546 0.0881983 0)
(2.87385 0.110846 0)
(2.81568 0.111932 0)
(2.78814 0.0901698 0)
(2.7438 0.0983604 0)
(2.69579 0.0804849 0)
(2.65835 0.0581719 0)
(2.6455 0.0754777 0)
(2.61873 0.106885 0)
(2.57466 0.118298 0)
(2.53165 0.0865019 0)
(2.51753 0.0592578 0)
(2.49349 0.106029 0)
(2.43264 0.122135 0)
(2.38352 0.121451 0)
(2.32012 0.132843 0)
(2.26762 0.105764 0)
(2.24289 0.0897042 0)
(2.20216 0.10351 0)
(2.15436 0.0929168 0)
(2.12575 0.0857766 0)
(2.09635 0.100426 0)
(2.05654 0.114805 0)
(2.00228 0.102708 0)
(1.9655 0.0861904 0)
(1.93373 0.0914805 0)
(1.89605 0.108052 0)
(1.83633 0.125426 0)
(1.78157 0.10612 0)
(1.75047 0.078768 0)
(1.71996 0.0863389 0)
(1.68125 0.0830936 0)
(1.65934 0.0769772 0)
(1.62992 0.0888303 0)
(1.59399 0.0753247 0)
(1.56462 0.0655249 0)
(1.5407 0.0874906 0)
(1.48759 0.103627 0)
(1.44401 0.0996987 0)
(1.39991 0.0805047 0)
(1.37617 0.0610032 0)
(1.35205 0.0799627 0)
(1.30904 0.0748596 0)
(1.28675 0.057719 0)
(1.27452 0.0578708 0)
(1.24709 0.0842494 0)
(1.19819 0.0953464 0)
(1.1588 0.0886558 0)
(1.11878 0.0796351 0)
(1.10252 0.0481702 0)
(1.09225 0.0389299 0)
(1.06862 0.0711759 0)
(1.03001 0.0738051 0)
(1.01092 0.0485023 0)
(0.993035 0.0327348 0)
(0.985864 0.0214597 0)
(0.974728 0.0376869 0)
(0.945328 0.0668024 0)
(0.906458 0.0743989 0)
(0.873482 0.0544067 0)
(0.85837 0.0441144 0)
(0.838367 0.0428768 0)
(0.825114 0.0434367 0)
(0.814883 0.0477587 0)
(0.795332 0.0457864 0)
(0.778368 0.0565624 0)
(0.745901 0.0751065 0)
(0.70976 0.037639 0)
(0.714463 0.0232527 0)
(0.699297 0.0530282 0)
(0.677423 0.0456362 0)
(0.663093 0.0335399 0)
(0.648988 0.0240327 0)
(0.624245 0.0247317 0)
(0.60963 0.0297662 0)
(0.599115 0.0527384 0)
(0.566966 0.0464559 0)
(0.559359 0.0125832 0)
(0.563938 0.0186887 0)
(0.55784 0.0370927 0)
(0.537861 0.0323228 0)
(0.51798 0.0420023 0)
(0.484672 0.0386396 0)
(0.472104 0.0296724 0)
(0.459525 0.0331525 0)
(0.442208 0.0266438 0)
(0.438573 0.0200049 0)
(0.431853 0.0116984 0)
(0.425706 0.0092156 0)
(0.435627 0.00909696 0)
(0.425022 0.0205247 0)
(0.406829 0.0122783 0)
(0.400694 0.0129632 0)
(0.387342 0.0197467 0)
(0.382534 0.0327142 0)
(0.351513 0.026447 0)