/*--------------------------------*- C++ -*----------------------------------*\
| =========                 |                                                 |
| \\      /  F ield         | OpenFOAM: The Open Source CFD Toolbox           |
|  \\    /   O peration     | Version:  v2012                                 |
|   \\  /    A nd           | Website:  www.openfoam.com                      |
|    \\/     M anipulation  |                                                 |
\*---------------------------------------------------------------------------*/
FoamFile
{
    version     2.0;
    format      ascii;
    class       volScalarField;
    location    "150";
    object      aU;
}
// * * * * * * * * * * * * * * * * * * * * * * * * * * * * * * * * * * * * * //

dimensions      [0 0 0 0 0 0 0];


internalField   nonuniform List<scalar> 
65536
(
6.75746e-05
4.68919e-05
2.51255e-05
2.95997e-05
3.73057e-05
3.9122e-05
4.70123e-05
4.97344e-05
5.66674e-05
6.03057e-05
6.65444e-05
7.08574e-05
7.64714e-05
8.12998e-05
8.63301e-05
9.14868e-05
9.60272e-05
0.000101309
0.000105466
0.00011068
0.000114538
0.000119544
0.000123155
0.000127861
0.000131242
0.00013559
0.000138736
0.0001427
0.000145594
0.000149161
0.000151788
0.000154959
0.000157308
0.000160089
0.000162156
0.000164564
0.000166345
0.0001684
0.000169903
0.000171625
0.00017286
0.000174271
0.00017525
0.000176369
0.000177104
0.00017795
0.000178452
0.000179041
0.000179323
0.000179668
0.000179737
0.000179848
0.00017971
0.000179595
0.000179254
0.000178916
0.000178373
0.000177817
0.000177071
0.000176298
0.000175352
0.000174365
0.000173219
0.000172023
0.000170681
0.000169281
0.000167749
0.000166154
0.000164441
0.000162664
0.000160783
0.000158839
0.000156807
0.000154715
0.000152549
0.00015033
0.000148051
0.000145727
0.000143357
0.00014095
0.000138513
0.000136046
0.000133561
0.000131056
0.000128545
0.000126023
0.000123505
0.000120984
0.000118476
0.000115974
0.000113491
0.000111021
0.000108577
0.000106152
0.000103758
0.000101388
9.90522e-05
9.67455e-05
9.4476e-05
9.22389e-05
9.00409e-05
8.78781e-05
8.57556e-05
8.36704e-05
8.16261e-05
7.96204e-05
7.76558e-05
7.57308e-05
7.38465e-05
7.20022e-05
7.0198e-05
6.84338e-05
6.67088e-05
6.50235e-05
6.33764e-05
6.17684e-05
6.01974e-05
5.86646e-05
5.71677e-05
5.57079e-05
5.42828e-05
5.28935e-05
5.15376e-05
5.02164e-05
4.89272e-05
4.76713e-05
4.64462e-05
4.5253e-05
4.40892e-05
4.2956e-05
4.1851e-05
4.07751e-05
3.97261e-05
3.8705e-05
3.77095e-05
3.67405e-05
3.5796e-05
3.48766e-05
3.39806e-05
3.31085e-05
3.22586e-05
3.14314e-05
3.06254e-05
2.98408e-05
2.90765e-05
2.83324e-05
2.76076e-05
2.6902e-05
2.62146e-05
2.55454e-05
2.48936e-05
2.42591e-05
2.36409e-05
2.30392e-05
2.2453e-05
2.18823e-05
2.13263e-05
2.0785e-05
2.02578e-05
1.97444e-05
1.92443e-05
1.87573e-05
1.82829e-05
1.78209e-05
1.73708e-05
1.69325e-05
1.65055e-05
1.60896e-05
1.56844e-05
1.52897e-05
1.49052e-05
1.45306e-05
1.41656e-05
1.381e-05
1.34635e-05
1.3126e-05
1.2797e-05
1.24765e-05
1.21642e-05
1.18598e-05
1.15632e-05
1.12741e-05
1.09923e-05
1.07177e-05
1.04501e-05
1.01891e-05
9.93483e-06
9.68691e-06
9.44522e-06
9.2096e-06
8.97988e-06
8.75592e-06
8.53754e-06
8.32462e-06
8.11699e-06
7.91453e-06
7.71709e-06
7.52454e-06
7.33676e-06
7.15362e-06
6.97499e-06
6.80077e-06
6.63082e-06
6.46506e-06
6.30335e-06
6.14561e-06
5.99172e-06
5.8416e-06
5.69514e-06
5.55225e-06
5.41284e-06
5.27682e-06
5.14411e-06
5.01462e-06
4.88828e-06
4.765e-06
4.64472e-06
4.52736e-06
4.41285e-06
4.30111e-06
4.1921e-06
4.08573e-06
3.98195e-06
3.8807e-06
3.78192e-06
3.68555e-06
3.59154e-06
3.49984e-06
3.4104e-06
3.32316e-06
3.23808e-06
3.15511e-06
3.0742e-06
2.99532e-06
2.91842e-06
2.84346e-06
2.7704e-06
2.6992e-06
2.62982e-06
2.56223e-06
2.49639e-06
2.43227e-06
2.36982e-06
2.30903e-06
2.24985e-06
2.19226e-06
2.13622e-06
2.08171e-06
2.02869e-06
1.97713e-06
1.927e-06
1.87828e-06
1.83093e-06
1.78494e-06
1.74026e-06
1.69687e-06
1.65475e-06
1.61386e-06
1.57418e-06
1.53568e-06
1.49834e-06
1.46212e-06
1.42699e-06
1.39294e-06
1.35993e-06
1.32794e-06
1.29693e-06
1.26688e-06
1.23776e-06
1.20955e-06
1.18221e-06
1.15573e-06
1.13006e-06
1.10518e-06
1.08107e-06
1.0577e-06
1.03504e-06
1.01306e-06
9.91739e-07
9.71044e-07
9.50951e-07
9.31433e-07
9.12465e-07
8.94021e-07
8.76074e-07
8.58602e-07
8.41578e-07
8.2498e-07
8.08783e-07
7.92965e-07
7.77505e-07
7.6238e-07
7.4757e-07
7.33056e-07
7.18817e-07
7.04837e-07
6.91096e-07
6.77579e-07
6.64271e-07
6.51155e-07
6.38219e-07
6.25449e-07
6.12833e-07
6.00361e-07
5.88021e-07
5.75806e-07
5.63707e-07
5.51716e-07
5.39828e-07
5.28036e-07
5.16337e-07
5.04726e-07
4.93202e-07
4.81761e-07
4.70403e-07
4.59128e-07
4.47935e-07
4.36826e-07
4.25803e-07
4.14867e-07
4.04022e-07
3.93272e-07
3.82619e-07
3.72069e-07
3.61625e-07
3.51294e-07
3.4108e-07
3.30989e-07
3.21028e-07
3.112e-07
3.01515e-07
2.91976e-07
2.8259e-07
2.73363e-07
2.64302e-07
2.55412e-07
2.46698e-07
2.38167e-07
2.29824e-07
2.21674e-07
2.13721e-07
2.05971e-07
1.98426e-07
1.91091e-07
1.83969e-07
1.77063e-07
1.70376e-07
1.63908e-07
1.57662e-07
1.51639e-07
1.45839e-07
1.40262e-07
1.34908e-07
1.29775e-07
1.24861e-07
1.20166e-07
1.15685e-07
1.11417e-07
1.07357e-07
1.03501e-07
9.98456e-08
9.63852e-08
9.31148e-08
9.00289e-08
8.71217e-08
8.43871e-08
8.18189e-08
7.94106e-08
7.71557e-08
7.50474e-08
7.3079e-08
7.12437e-08
6.95347e-08
6.79452e-08
6.64682e-08
6.50969e-08
6.38248e-08
6.26458e-08
6.15529e-08
6.05397e-08
5.95996e-08
5.87262e-08
5.7913e-08
5.71536e-08
5.64418e-08
5.57711e-08
5.51353e-08
5.45282e-08
5.39438e-08
5.33758e-08
5.28183e-08
5.22656e-08
5.17117e-08
5.11512e-08
5.05786e-08
4.99887e-08
4.93764e-08
4.87368e-08
4.80655e-08
4.7358e-08
4.66104e-08
4.58189e-08
4.498e-08
4.40908e-08
4.31485e-08
4.21507e-08
4.10956e-08
3.99817e-08
3.8808e-08
3.75742e-08
3.62802e-08
3.49272e-08
3.35167e-08
3.20516e-08
3.05358e-08
2.89756e-08
2.73776e-08
2.57522e-08
2.41115e-08
2.24735e-08
2.08592e-08
1.93004e-08
1.78355e-08
1.65201e-08
1.542e-08
1.46166e-08
1.41895e-08
1.42026e-08
1.46817e-08
1.56047e-08
1.69225e-08
1.85602e-08
2.04625e-08
2.2559e-08
2.48231e-08
2.71964e-08
2.96796e-08
3.22166e-08
3.48312e-08
3.74596e-08
4.01472e-08
4.28138e-08
4.55305e-08
4.81946e-08
5.0907e-08
5.35342e-08
5.62137e-08
5.87727e-08
6.13939e-08
6.38561e-08
6.63956e-08
6.87342e-08
7.11708e-08
7.33616e-08
7.56769e-08
7.76985e-08
7.98678e-08
8.16948e-08
8.36964e-08
8.53121e-08
8.71241e-08
8.85166e-08
9.01153e-08
9.12776e-08
9.26359e-08
9.35676e-08
9.46544e-08
9.53629e-08
9.61423e-08
9.66436e-08
9.70748e-08
9.73938e-08
9.74311e-08
9.76015e-08
9.71957e-08
9.72581e-08
9.63588e-08
9.6358e-08
9.49173e-08
9.48983e-08
9.28758e-08
9.28778e-08
9.02474e-08
9.02977e-08
8.70532e-08
8.71615e-08
8.33218e-08
8.34774e-08
7.90871e-08
7.92618e-08
7.43845e-08
7.45431e-08
6.9248e-08
6.93657e-08
6.37095e-08
6.37877e-08
5.78081e-08
5.7867e-08
5.16161e-08
5.16292e-08
4.52858e-08
4.50187e-08
3.91066e-08
3.78671e-08
3.35225e-08
2.99961e-08
2.89963e-08
2.1887e-08
2.54261e-08
1.73216e-08
1.96966e-08
2.12489e-08
2.95388e-06
5.33347e-05
2.47208e-05
3.34642e-05
2.83289e-05
3.09073e-05
2.84593e-05
2.93011e-05
2.77251e-05
2.79659e-05
2.65538e-05
2.65697e-05
2.51661e-05
2.49564e-05
2.36286e-05
2.31308e-05
2.19233e-05
2.11401e-05
2.00536e-05
1.90404e-05
1.80356e-05
1.68589e-05
1.59021e-05
1.46306e-05
1.37017e-05
1.2389e-05
1.14822e-05
1.01706e-05
9.29561e-06
8.01744e-06
7.19878e-06
5.98686e-06
5.2727e-06
4.18883e-06
3.68557e-06
2.89945e-06
2.83987e-06
2.68642e-06
3.14967e-06
3.54958e-06
4.21035e-06
4.81082e-06
5.48028e-06
6.11764e-06
6.74244e-06
7.35612e-06
7.91872e-06
8.48362e-06
8.97808e-06
9.48179e-06
9.90559e-06
1.03417e-05
1.06943e-05
1.10596e-05
1.13417e-05
1.16352e-05
1.18481e-05
1.20701e-05
1.22161e-05
1.23686e-05
1.24512e-05
1.25372e-05
1.25601e-05
1.25837e-05
1.25517e-05
1.25183e-05
1.24372e-05
1.23531e-05
1.2229e-05
1.21009e-05
1.19404e-05
1.17753e-05
1.15852e-05
1.13903e-05
1.1177e-05
1.09591e-05
1.07288e-05
1.04944e-05
1.02528e-05
1.00079e-05
9.7601e-06
9.50972e-06
9.26014e-06
9.00877e-06
8.76106e-06
8.51237e-06
8.26949e-06
8.02642e-06
7.79067e-06
7.55547e-06
7.32856e-06
7.10287e-06
6.88599e-06
6.67092e-06
6.46483e-06
6.26104e-06
6.06612e-06
5.87392e-06
5.69026e-06
5.50967e-06
5.33717e-06
5.16799e-06
5.00635e-06
4.84822e-06
4.69705e-06
4.5495e-06
4.40831e-06
4.27081e-06
4.13907e-06
4.01104e-06
3.88821e-06
3.76904e-06
3.65457e-06
3.54368e-06
3.43701e-06
3.33382e-06
3.23443e-06
3.13838e-06
3.04575e-06
2.95632e-06
2.86997e-06
2.78666e-06
2.70613e-06
2.62847e-06
2.55335e-06
2.48091e-06
2.41078e-06
2.34317e-06
2.27767e-06
2.21452e-06
2.1533e-06
2.09426e-06
2.03701e-06
1.98178e-06
1.92819e-06
1.87648e-06
1.82629e-06
1.77783e-06
1.73078e-06
1.68534e-06
1.64121e-06
1.59856e-06
1.55712e-06
1.51706e-06
1.47813e-06
1.44047e-06
1.40386e-06
1.36842e-06
1.33398e-06
1.30061e-06
1.26816e-06
1.23672e-06
1.20614e-06
1.17648e-06
1.14763e-06
1.11963e-06
1.0924e-06
1.06595e-06
1.04022e-06
1.01522e-06
9.90881e-07
9.67227e-07
9.44193e-07
9.21793e-07
8.99974e-07
8.78745e-07
8.58058e-07
8.3792e-07
8.1829e-07
7.99169e-07
7.80523e-07
7.62352e-07
7.44624e-07
7.27337e-07
7.10465e-07
6.94002e-07
6.77927e-07
6.62233e-07
6.469e-07
6.31922e-07
6.1728e-07
6.02967e-07
5.88968e-07
5.75275e-07
5.61874e-07
5.48757e-07
5.35912e-07
5.23331e-07
5.11003e-07
4.98921e-07
4.87073e-07
4.75454e-07
4.64055e-07
4.52867e-07
4.41884e-07
4.31098e-07
4.20504e-07
4.10094e-07
3.99862e-07
3.89804e-07
3.79913e-07
3.70186e-07
3.60616e-07
3.51201e-07
3.41935e-07
3.32816e-07
3.23841e-07
3.15007e-07
3.06311e-07
2.97751e-07
2.89325e-07
2.81033e-07
2.72873e-07
2.64845e-07
2.56949e-07
2.49183e-07
2.41551e-07
2.34051e-07
2.26685e-07
2.19454e-07
2.12361e-07
2.05407e-07
1.98595e-07
1.91927e-07
1.85406e-07
1.79035e-07
1.72817e-07
1.66755e-07
1.60853e-07
1.55113e-07
1.4954e-07
1.44135e-07
1.38902e-07
1.33843e-07
1.28961e-07
1.24256e-07
1.19732e-07
1.15387e-07
1.11221e-07
1.07235e-07
1.03425e-07
9.979e-08
9.63251e-08
9.3026e-08
8.98869e-08
8.69011e-08
8.40611e-08
8.13585e-08
7.87842e-08
7.63286e-08
7.39818e-08
7.17338e-08
6.95746e-08
6.74945e-08
6.54844e-08
6.3536e-08
6.1642e-08
5.97964e-08
5.79946e-08
5.6234e-08
5.45136e-08
5.28347e-08
5.1201e-08
4.96184e-08
4.80956e-08
4.66442e-08
4.52779e-08
4.40136e-08
4.28698e-08
4.18671e-08
4.10267e-08
4.03697e-08
3.99157e-08
3.96812e-08
3.96785e-08
3.9914e-08
4.03882e-08
4.10952e-08
4.20234e-08
4.31559e-08
4.44725e-08
4.59501e-08
4.75646e-08
4.92912e-08
5.11058e-08
5.29847e-08
5.49058e-08
5.6848e-08
5.87917e-08
6.07188e-08
6.26125e-08
6.44576e-08
6.62399e-08
6.79466e-08
6.95661e-08
7.10878e-08
7.25027e-08
7.38027e-08
7.49806e-08
7.60304e-08
7.69471e-08
7.77265e-08
7.83657e-08
7.88627e-08
7.92167e-08
7.94278e-08
7.9497e-08
7.94267e-08
7.92199e-08
7.88809e-08
7.84149e-08
7.78281e-08
7.71277e-08
7.63219e-08
7.542e-08
7.44321e-08
7.33693e-08
7.22437e-08
7.1068e-08
6.98561e-08
6.86225e-08
6.73821e-08
6.61506e-08
6.49439e-08
6.37781e-08
6.26691e-08
6.16324e-08
6.06827e-08
5.98334e-08
5.90962e-08
5.84821e-08
5.79992e-08
5.76514e-08
5.7441e-08
5.73678e-08
5.74283e-08
5.76167e-08
5.79246e-08
5.83416e-08
5.88557e-08
5.94537e-08
6.01217e-08
6.08454e-08
6.16107e-08
6.24034e-08
6.32102e-08
6.40184e-08
6.4816e-08
6.55922e-08
6.63371e-08
6.70417e-08
6.76984e-08
6.83002e-08
6.88416e-08
6.93177e-08
6.97249e-08
7.00604e-08
7.03222e-08
7.05093e-08
7.06212e-08
7.06586e-08
7.06226e-08
7.0515e-08
7.03384e-08
7.00957e-08
6.97906e-08
6.94272e-08
6.901e-08
6.85439e-08
6.80342e-08
6.74863e-08
6.69062e-08
6.62996e-08
6.56728e-08
6.50318e-08
6.43823e-08
6.373e-08
6.30808e-08
6.24404e-08
6.18139e-08
6.12063e-08
6.06217e-08
6.0064e-08
5.95364e-08
5.90416e-08
5.85814e-08
5.81572e-08
5.77695e-08
5.74181e-08
5.71023e-08
5.68208e-08
5.65716e-08
5.63523e-08
5.61602e-08
5.5992e-08
5.58444e-08
5.57139e-08
5.5597e-08
5.549e-08
5.53896e-08
5.52925e-08
5.51957e-08
5.50967e-08
5.49932e-08
5.48835e-08
5.47663e-08
5.46409e-08
5.45072e-08
5.43657e-08
5.42175e-08
5.40643e-08
5.39087e-08
5.37536e-08
5.36027e-08
5.34605e-08
5.33323e-08
5.32239e-08
5.31401e-08
5.30871e-08
5.30721e-08
5.31025e-08
5.31851e-08
5.33273e-08
5.35351e-08
5.38159e-08
5.4174e-08
5.46162e-08
5.51445e-08
5.57654e-08
5.64769e-08
5.72855e-08
5.81847e-08
5.9182e-08
6.02644e-08
6.14426e-08
6.26956e-08
6.40399e-08
6.54438e-08
6.69333e-08
6.84628e-08
7.00716e-08
7.16974e-08
7.33989e-08
7.509e-08
7.6855e-08
7.85778e-08
8.03764e-08
8.20968e-08
8.38998e-08
8.5585e-08
8.73648e-08
8.8983e-08
9.07132e-08
9.22344e-08
9.389e-08
9.52855e-08
9.68385e-08
9.80826e-08
9.95099e-08
1.00582e-07
1.01857e-07
1.02739e-07
1.03833e-07
1.04514e-07
1.05398e-07
1.05874e-07
1.06512e-07
1.06787e-07
1.07142e-07
1.0723e-07
1.07256e-07
1.0718e-07
1.06831e-07
1.06623e-07
1.05845e-07
1.05545e-07
1.04286e-07
1.03937e-07
1.02145e-07
1.01793e-07
9.94235e-08
9.91067e-08
9.61298e-08
9.5876e-08
9.22805e-08
9.20993e-08
8.7899e-08
8.77795e-08
8.3013e-08
8.29257e-08
7.76503e-08
7.75579e-08
7.18349e-08
7.17096e-08
6.55849e-08
6.54247e-08
5.89198e-08
5.87439e-08
5.18841e-08
5.16707e-08
4.4594e-08
4.41211e-08
3.73031e-08
3.58802e-08
3.0455e-08
2.66419e-08
2.46418e-08
1.63169e-08
2.02902e-08
7.1371e-09
1.67886e-08
7.89925e-09
3.30673e-05
3.78857e-05
2.26641e-05
3.29182e-05
2.45087e-05
2.97343e-05
2.53368e-05
2.74087e-05
2.49894e-05
2.57606e-05
2.37202e-05
2.41154e-05
2.20976e-05
2.22158e-05
2.03162e-05
2.0088e-05
1.83675e-05
1.78113e-05
1.62821e-05
1.54725e-05
1.40784e-05
1.30954e-05
1.17982e-05
1.07267e-05
9.49936e-06
8.39775e-06
7.2267e-06
6.14097e-06
5.02529e-06
3.98625e-06
2.92802e-06
1.96474e-06
9.61626e-07
3.41715e-07
8.59731e-07
1.72527e-06
2.50902e-06
3.27341e-06
3.98522e-06
4.65452e-06
5.27986e-06
5.85673e-06
6.39238e-06
6.87782e-06
7.32362e-06
7.7217e-06
8.08088e-06
8.39524e-06
8.67072e-06
8.90564e-06
9.10274e-06
9.26444e-06
9.38949e-06
9.48402e-06
9.54355e-06
9.5777e-06
9.57915e-06
9.56043e-06
9.51169e-06
9.44796e-06
9.35727e-06
9.25632e-06
9.13146e-06
9.00058e-06
8.84907e-06
8.69543e-06
8.52459e-06
8.355e-06
8.17155e-06
7.9921e-06
7.80193e-06
7.61787e-06
7.42595e-06
7.24162e-06
7.05192e-06
6.87073e-06
6.68628e-06
6.51073e-06
6.33365e-06
6.16545e-06
5.99711e-06
5.83727e-06
5.6784e-06
5.52739e-06
5.37822e-06
5.23611e-06
5.0965e-06
4.96309e-06
4.83266e-06
4.70753e-06
4.58576e-06
4.4684e-06
4.35467e-06
4.24453e-06
4.13818e-06
4.03469e-06
3.93508e-06
3.83769e-06
3.74421e-06
3.65241e-06
3.56448e-06
3.47781e-06
3.39492e-06
3.31295e-06
3.23464e-06
3.157e-06
3.08286e-06
3.00923e-06
2.93891e-06
2.869e-06
2.80219e-06
2.73575e-06
2.6722e-06
2.609e-06
2.54848e-06
2.48832e-06
2.43064e-06
2.37335e-06
2.31833e-06
2.26376e-06
2.21127e-06
2.15926e-06
2.10916e-06
2.05959e-06
2.01177e-06
1.96452e-06
1.91886e-06
1.87383e-06
1.83024e-06
1.78731e-06
1.74571e-06
1.70479e-06
1.66509e-06
1.62609e-06
1.58821e-06
1.55104e-06
1.51491e-06
1.47948e-06
1.44502e-06
1.41127e-06
1.37842e-06
1.34626e-06
1.31495e-06
1.28432e-06
1.25447e-06
1.2253e-06
1.19686e-06
1.16909e-06
1.142e-06
1.11555e-06
1.08976e-06
1.06458e-06
1.04002e-06
1.01605e-06
9.92668e-07
9.69856e-07
9.47601e-07
9.25891e-07
9.0471e-07
8.84049e-07
8.6389e-07
8.44229e-07
8.25043e-07
8.0633e-07
7.8807e-07
7.70258e-07
7.52875e-07
7.35918e-07
7.19366e-07
7.03217e-07
6.87453e-07
6.72068e-07
6.57045e-07
6.42381e-07
6.28058e-07
6.14072e-07
6.00407e-07
5.87058e-07
5.7401e-07
5.61258e-07
5.48788e-07
5.36594e-07
5.24664e-07
5.12992e-07
5.01565e-07
4.90378e-07
4.7942e-07
4.68685e-07
4.58162e-07
4.47845e-07
4.37726e-07
4.27798e-07
4.18053e-07
4.08486e-07
3.99087e-07
3.89853e-07
3.80777e-07
3.71852e-07
3.63074e-07
3.54438e-07
3.45938e-07
3.3757e-07
3.2933e-07
3.21215e-07
3.1322e-07
3.05343e-07
2.9758e-07
2.89931e-07
2.82392e-07
2.74962e-07
2.67639e-07
2.60424e-07
2.53314e-07
2.46311e-07
2.39414e-07
2.32624e-07
2.25942e-07
2.19369e-07
2.12907e-07
2.06558e-07
2.00324e-07
1.94209e-07
1.88214e-07
1.82342e-07
1.76598e-07
1.70985e-07
1.65506e-07
1.60165e-07
1.54966e-07
1.49912e-07
1.45007e-07
1.40255e-07
1.35658e-07
1.31219e-07
1.26942e-07
1.22827e-07
1.18876e-07
1.1509e-07
1.11469e-07
1.08011e-07
1.04715e-07
1.01579e-07
9.85976e-08
9.57676e-08
9.30832e-08
9.05381e-08
8.81252e-08
8.58369e-08
8.36649e-08
8.16012e-08
7.9637e-08
7.7764e-08
7.59739e-08
7.4259e-08
7.26125e-08
7.10282e-08
6.95013e-08
6.80281e-08
6.66063e-08
6.52352e-08
6.39157e-08
6.26505e-08
6.14442e-08
6.03026e-08
5.92339e-08
5.82471e-08
5.73531e-08
5.65633e-08
5.589e-08
5.53455e-08
5.49418e-08
5.46899e-08
5.4599e-08
5.46759e-08
5.49253e-08
5.53482e-08
5.59428e-08
5.67038e-08
5.76233e-08
5.869e-08
5.98908e-08
6.12103e-08
6.26322e-08
6.41388e-08
6.57122e-08
6.73342e-08
6.89866e-08
7.06518e-08
7.23126e-08
7.39524e-08
7.55554e-08
7.71068e-08
7.85924e-08
7.99991e-08
8.13147e-08
8.25279e-08
8.36286e-08
8.46074e-08
8.5456e-08
8.6167e-08
8.67341e-08
8.71522e-08
8.74166e-08
8.75239e-08
8.74715e-08
8.72579e-08
8.68824e-08
8.63452e-08
8.56475e-08
8.47913e-08
8.37796e-08
8.26163e-08
8.1306e-08
7.98543e-08
7.82676e-08
7.65532e-08
7.47192e-08
7.27744e-08
7.07287e-08
6.85927e-08
6.63779e-08
6.40966e-08
6.17622e-08
5.9389e-08
5.69924e-08
5.45889e-08
5.21963e-08
4.98334e-08
4.75208e-08
4.52795e-08
4.3133e-08
4.11069e-08
3.92263e-08
3.7516e-08
3.60008e-08
3.4703e-08
3.36411e-08
3.28281e-08
3.22695e-08
3.19626e-08
3.18961e-08
3.2051e-08
3.24023e-08
3.29207e-08
3.35753e-08
3.43348e-08
3.51694e-08
3.60518e-08
3.69571e-08
3.78636e-08
3.87526e-08
3.9608e-08
4.04165e-08
4.1167e-08
4.18505e-08
4.24598e-08
4.29894e-08
4.34354e-08
4.37951e-08
4.4067e-08
4.4251e-08
4.43478e-08
4.43589e-08
4.42869e-08
4.41352e-08
4.39079e-08
4.36098e-08
4.32464e-08
4.28236e-08
4.23482e-08
4.18273e-08
4.12685e-08
4.06798e-08
4.00695e-08
3.94463e-08
3.88187e-08
3.81959e-08
3.75869e-08
3.70004e-08
3.64447e-08
3.59276e-08
3.54562e-08
3.50369e-08
3.46748e-08
3.43738e-08
3.41367e-08
3.39648e-08
3.38578e-08
3.38143e-08
3.38314e-08
3.3905e-08
3.40303e-08
3.42012e-08
3.44115e-08
3.46543e-08
3.49227e-08
3.52097e-08
3.55087e-08
3.58131e-08
3.6117e-08
3.64152e-08
3.67027e-08
3.69757e-08
3.72308e-08
3.74656e-08
3.76784e-08
3.78684e-08
3.80358e-08
3.81814e-08
3.83072e-08
3.8416e-08
3.85115e-08
3.85981e-08
3.86813e-08
3.87676e-08
3.88644e-08
3.8979e-08
3.91183e-08
3.9291e-08
3.95072e-08
3.97764e-08
4.0107e-08
4.05077e-08
4.09857e-08
4.15491e-08
4.22027e-08
4.29533e-08
4.38019e-08
4.47544e-08
4.58068e-08
4.69649e-08
4.82188e-08
4.95755e-08
5.10184e-08
5.25582e-08
5.41695e-08
5.58699e-08
5.7623e-08
5.94575e-08
6.1322e-08
6.32603e-08
6.52043e-08
6.7218e-08
6.92083e-08
7.12671e-08
7.32701e-08
7.53448e-08
7.73277e-08
7.93904e-08
8.13211e-08
8.33445e-08
8.51914e-08
8.7149e-08
8.88823e-08
9.07489e-08
9.23392e-08
9.40892e-08
9.55151e-08
9.71265e-08
9.83676e-08
9.9815e-08
1.00855e-07
1.0211e-07
1.02939e-07
1.03973e-07
1.04587e-07
1.05365e-07
1.05771e-07
1.06255e-07
1.06467e-07
1.06614e-07
1.06656e-07
1.06417e-07
1.06322e-07
1.05647e-07
1.05455e-07
1.04291e-07
1.04047e-07
1.02343e-07
1.02093e-07
9.98066e-08
9.95896e-08
9.66922e-08
9.65354e-08
9.30193e-08
9.29321e-08
8.88147e-08
8.87857e-08
8.41104e-08
8.41103e-08
7.89401e-08
7.89323e-08
7.33358e-08
7.32944e-08
6.73276e-08
6.72537e-08
6.0953e-08
6.08687e-08
5.42825e-08
5.41663e-08
4.74648e-08
4.70928e-08
4.07789e-08
3.94733e-08
3.46396e-08
3.10694e-08
2.94565e-08
2.198e-08
2.52659e-08
1.49252e-08
1.99223e-08
1.4291e-08
2.06624e-05
3.84821e-05
2.29075e-05
3.47734e-05
2.63307e-05
3.18375e-05
2.75838e-05
2.9519e-05
2.73094e-05
2.8178e-05
2.59856e-05
2.68018e-05
2.44961e-05
2.50737e-05
2.29759e-05
2.30788e-05
2.12923e-05
2.09144e-05
1.94545e-05
1.87036e-05
1.74546e-05
1.64328e-05
1.53214e-05
1.4152e-05
1.31303e-05
1.18914e-05
1.09355e-05
9.69314e-06
8.80999e-06
7.61238e-06
6.82961e-06
5.72825e-06
5.11805e-06
4.20518e-06
3.90936e-06
3.37074e-06
3.53978e-06
3.51795e-06
4.04895e-06
4.37779e-06
5.02495e-06
5.48812e-06
6.12578e-06
6.61203e-06
7.19221e-06
7.65188e-06
8.15771e-06
8.56696e-06
8.99171e-06
9.33878e-06
9.68132e-06
9.96126e-06
1.02235e-05
1.04353e-05
1.06209e-05
1.0766e-05
1.08796e-05
1.09608e-05
1.10083e-05
1.10303e-05
1.10187e-05
1.09879e-05
1.0925e-05
1.08479e-05
1.07415e-05
1.06253e-05
1.04831e-05
1.03352e-05
1.01652e-05
9.99289e-06
9.80243e-06
9.61239e-06
9.40814e-06
9.20648e-06
8.99429e-06
8.7863e-06
8.57113e-06
8.36119e-06
8.14704e-06
7.93867e-06
7.72864e-06
7.52454e-06
7.32089e-06
7.123e-06
6.9273e-06
6.73694e-06
6.55015e-06
6.36816e-06
6.19078e-06
6.01759e-06
5.84978e-06
5.68553e-06
5.52718e-06
5.37179e-06
5.22262e-06
5.07589e-06
4.93551e-06
4.7971e-06
4.66506e-06
4.5346e-06
4.4104e-06
4.28749e-06
4.17066e-06
4.05487e-06
3.94492e-06
3.83586e-06
3.73233e-06
3.6296e-06
3.53206e-06
3.43527e-06
3.34334e-06
3.25213e-06
3.16544e-06
3.07947e-06
2.99768e-06
2.91664e-06
2.83943e-06
2.76301e-06
2.6901e-06
2.61803e-06
2.54917e-06
2.48117e-06
2.4161e-06
2.35194e-06
2.29045e-06
2.22989e-06
2.17175e-06
2.11458e-06
2.05961e-06
2.00563e-06
1.95365e-06
1.90265e-06
1.85349e-06
1.80531e-06
1.75881e-06
1.71328e-06
1.66929e-06
1.62626e-06
1.58463e-06
1.54395e-06
1.50457e-06
1.4661e-06
1.42883e-06
1.39246e-06
1.35719e-06
1.32278e-06
1.2894e-06
1.25686e-06
1.22527e-06
1.19448e-06
1.16458e-06
1.13545e-06
1.10715e-06
1.07959e-06
1.0528e-06
1.02672e-06
1.00137e-06
9.76686e-07
9.52687e-07
9.29329e-07
9.06611e-07
8.84503e-07
8.62996e-07
8.42067e-07
8.21705e-07
8.0189e-07
7.82607e-07
7.63841e-07
7.45577e-07
7.278e-07
7.10494e-07
6.93647e-07
6.77243e-07
6.6127e-07
6.45712e-07
6.30558e-07
6.15794e-07
6.01407e-07
5.87385e-07
5.73715e-07
5.60386e-07
5.47386e-07
5.34702e-07
5.22324e-07
5.10241e-07
4.98442e-07
4.86917e-07
4.75655e-07
4.64647e-07
4.53882e-07
4.43352e-07
4.33048e-07
4.2296e-07
4.13082e-07
4.03403e-07
3.93918e-07
3.84618e-07
3.75496e-07
3.66547e-07
3.57763e-07
3.49139e-07
3.40669e-07
3.32349e-07
3.24173e-07
3.16137e-07
3.08237e-07
3.0047e-07
2.92833e-07
2.85323e-07
2.77938e-07
2.70675e-07
2.63534e-07
2.56513e-07
2.49612e-07
2.4283e-07
2.36168e-07
2.29626e-07
2.23205e-07
2.16906e-07
2.1073e-07
2.04679e-07
1.98756e-07
1.92963e-07
1.87301e-07
1.81774e-07
1.76384e-07
1.71134e-07
1.66026e-07
1.61064e-07
1.56249e-07
1.51583e-07
1.47069e-07
1.42707e-07
1.38499e-07
1.34446e-07
1.30547e-07
1.268e-07
1.23205e-07
1.19759e-07
1.16459e-07
1.133e-07
1.10277e-07
1.07385e-07
1.04616e-07
1.01964e-07
9.94204e-08
9.69763e-08
9.46231e-08
9.23514e-08
9.01522e-08
8.80161e-08
8.59342e-08
8.38981e-08
8.18997e-08
7.99321e-08
7.79888e-08
7.6065e-08
7.41566e-08
7.22613e-08
7.03781e-08
6.85077e-08
6.66527e-08
6.48173e-08
6.30082e-08
6.12338e-08
5.95049e-08
5.78341e-08
5.62364e-08
5.47287e-08
5.33295e-08
5.20585e-08
5.09363e-08
4.99829e-08
4.92175e-08
4.86568e-08
4.83143e-08
4.81989e-08
4.83143e-08
4.86588e-08
4.92246e-08
4.99991e-08
5.09653e-08
5.21025e-08
5.33877e-08
5.47965e-08
5.63039e-08
5.78851e-08
5.95158e-08
6.1173e-08
6.28346e-08
6.44801e-08
6.60903e-08
6.76475e-08
6.91356e-08
7.05398e-08
7.18467e-08
7.30439e-08
7.41204e-08
7.50666e-08
7.58735e-08
7.65343e-08
7.70431e-08
7.73943e-08
7.75837e-08
7.76084e-08
7.74661e-08
7.71557e-08
7.66771e-08
7.6031e-08
7.5219e-08
7.42436e-08
7.31084e-08
7.18175e-08
7.0376e-08
6.87897e-08
6.70655e-08
6.52106e-08
6.32333e-08
6.11427e-08
5.89485e-08
5.66613e-08
5.42926e-08
5.18547e-08
4.93611e-08
4.68261e-08
4.42657e-08
4.16973e-08
3.91402e-08
3.66163e-08
3.415e-08
3.17689e-08
2.95061e-08
2.73989e-08
2.54895e-08
2.38244e-08
2.24516e-08
2.14154e-08
2.07491e-08
2.04668e-08
2.05581e-08
2.09892e-08
2.17088e-08
2.26576e-08
2.37761e-08
2.50098e-08
2.63121e-08
2.7644e-08
2.89738e-08
3.02759e-08
3.153e-08
3.27197e-08
3.38321e-08
3.48571e-08
3.57868e-08
3.66149e-08
3.7337e-08
3.79499e-08
3.84516e-08
3.88413e-08
3.91189e-08
3.92852e-08
3.93421e-08
3.92917e-08
3.91372e-08
3.88823e-08
3.85311e-08
3.80886e-08
3.756e-08
3.69512e-08
3.62685e-08
3.55188e-08
3.47093e-08
3.38477e-08
3.29421e-08
3.20011e-08
3.10336e-08
3.00495e-08
2.90584e-08
2.80704e-08
2.70958e-08
2.61453e-08
2.52294e-08
2.43586e-08
2.35429e-08
2.27919e-08
2.21139e-08
2.1516e-08
2.10034e-08
2.05795e-08
2.02448e-08
1.99976e-08
1.98336e-08
1.97464e-08
1.97274e-08
1.97671e-08
1.98545e-08
1.99789e-08
2.01294e-08
2.02955e-08
2.04678e-08
2.06378e-08
2.07981e-08
2.09429e-08
2.10675e-08
2.11686e-08
2.12447e-08
2.12955e-08
2.13224e-08
2.13285e-08
2.13184e-08
2.12985e-08
2.12771e-08
2.12639e-08
2.12705e-08
2.13098e-08
2.13956e-08
2.15428e-08
2.17665e-08
2.20824e-08
2.25048e-08
2.3046e-08
2.37151e-08
2.45198e-08
2.54626e-08
2.65466e-08
2.77676e-08
2.91252e-08
3.06096e-08
3.22194e-08
3.39397e-08
3.5771e-08
3.76935e-08
3.9712e-08
4.18008e-08
4.39716e-08
4.61912e-08
4.84804e-08
5.07961e-08
5.31717e-08
5.55491e-08
5.798e-08
6.03879e-08
6.28453e-08
6.52514e-08
6.77076e-08
7.00816e-08
7.25111e-08
7.4824e-08
7.72025e-08
7.94257e-08
8.17294e-08
8.38349e-08
8.60405e-08
8.80019e-08
9.00852e-08
9.18746e-08
9.38155e-08
9.54147e-08
9.71903e-08
9.85794e-08
1.00166e-07
1.0133e-07
1.02701e-07
1.03633e-07
1.0476e-07
1.05458e-07
1.06309e-07
1.06778e-07
1.07316e-07
1.07573e-07
1.07755e-07
1.07825e-07
1.07605e-07
1.0752e-07
1.06846e-07
1.06648e-07
1.05469e-07
1.05203e-07
1.03468e-07
1.0318e-07
1.00847e-07
1.00577e-07
9.76155e-08
9.73913e-08
9.3793e-08
9.36256e-08
8.94048e-08
8.92843e-08
8.44804e-08
8.43791e-08
7.9049e-08
7.89324e-08
7.31348e-08
7.29796e-08
6.67548e-08
6.65667e-08
5.99246e-08
5.97347e-08
5.26809e-08
5.24851e-08
4.51277e-08
4.47242e-08
3.75039e-08
3.62036e-08
3.02498e-08
2.65063e-08
2.40124e-08
1.51707e-08
1.94235e-08
2.55739e-09
1.39326e-08
3.15569e-09
3.1605e-05
3.53882e-05
2.49818e-05
3.4993e-05
2.49262e-05
3.14702e-05
2.63503e-05
2.85272e-05
2.6061e-05
2.73005e-05
2.4425e-05
2.5853e-05
2.28286e-05
2.3894e-05
2.12932e-05
2.16583e-05
1.9543e-05
1.92573e-05
1.76398e-05
1.68996e-05
1.55747e-05
1.45056e-05
1.33757e-05
1.21558e-05
1.11584e-05
9.87521e-06
8.97354e-06
7.71134e-06
6.92511e-06
5.75145e-06
5.13734e-06
4.14334e-06
3.83588e-06
3.21278e-06
3.38194e-06
3.30641e-06
3.85139e-06
4.15276e-06
4.80446e-06
5.24399e-06
5.86867e-06
6.32606e-06
6.8794e-06
7.30383e-06
7.77157e-06
8.14116e-06
8.52085e-06
8.82614e-06
9.1198e-06
9.35805e-06
9.56998e-06
9.74146e-06
9.87732e-06
9.9845e-06
1.00507e-05
1.00979e-05
1.01024e-05
1.00961e-05
1.00467e-05
9.99284e-06
9.89758e-06
9.80372e-06
9.67122e-06
9.54453e-06
9.38279e-06
9.23028e-06
9.04703e-06
8.87551e-06
8.67792e-06
8.49373e-06
8.28823e-06
8.09702e-06
7.88915e-06
7.69575e-06
7.48996e-06
7.29827e-06
7.09802e-06
6.911e-06
6.71876e-06
6.53856e-06
6.35593e-06
6.18392e-06
6.0118e-06
5.84873e-06
5.68741e-06
5.53359e-06
5.38294e-06
5.23828e-06
5.09788e-06
4.96206e-06
4.8313e-06
4.70386e-06
4.58201e-06
4.46241e-06
4.34872e-06
4.2364e-06
4.13012e-06
4.02451e-06
3.92493e-06
3.8255e-06
3.73197e-06
3.63822e-06
3.55017e-06
3.46164e-06
3.37855e-06
3.29486e-06
3.21627e-06
3.13706e-06
3.0626e-06
2.98754e-06
2.91688e-06
2.8457e-06
2.77855e-06
2.711e-06
2.64714e-06
2.58299e-06
2.5222e-06
2.46126e-06
2.40336e-06
2.34545e-06
2.29028e-06
2.23524e-06
2.18266e-06
2.13033e-06
2.08022e-06
2.03046e-06
1.9827e-06
1.93539e-06
1.88987e-06
1.84488e-06
1.80151e-06
1.75872e-06
1.7174e-06
1.67672e-06
1.63736e-06
1.59867e-06
1.56119e-06
1.5244e-06
1.48871e-06
1.45373e-06
1.41976e-06
1.38649e-06
1.35416e-06
1.32253e-06
1.29177e-06
1.26169e-06
1.23242e-06
1.20383e-06
1.17599e-06
1.1488e-06
1.12232e-06
1.09647e-06
1.07129e-06
1.04671e-06
1.02276e-06
9.99392e-07
9.76614e-07
9.54396e-07
9.32733e-07
9.11606e-07
8.91002e-07
8.70908e-07
8.51308e-07
8.32193e-07
8.13545e-07
7.95356e-07
7.77608e-07
7.60294e-07
7.43396e-07
7.26907e-07
7.10811e-07
6.951e-07
6.79759e-07
6.64779e-07
6.50147e-07
6.35854e-07
6.21886e-07
6.08236e-07
5.9489e-07
5.81841e-07
5.69076e-07
5.56588e-07
5.44365e-07
5.32399e-07
5.2068e-07
5.092e-07
4.97948e-07
4.86918e-07
4.761e-07
4.65488e-07
4.55071e-07
4.44845e-07
4.348e-07
4.24931e-07
4.1523e-07
4.05691e-07
3.96308e-07
3.87076e-07
3.77988e-07
3.6904e-07
3.60227e-07
3.51544e-07
3.42987e-07
3.34553e-07
3.26238e-07
3.18038e-07
3.09951e-07
3.01975e-07
2.94108e-07
2.86347e-07
2.78692e-07
2.71142e-07
2.63696e-07
2.56354e-07
2.49116e-07
2.41983e-07
2.34955e-07
2.28034e-07
2.21222e-07
2.1452e-07
2.0793e-07
2.01456e-07
1.95099e-07
1.88863e-07
1.82751e-07
1.76766e-07
1.70912e-07
1.65193e-07
1.59611e-07
1.54172e-07
1.48878e-07
1.43732e-07
1.38739e-07
1.33902e-07
1.29222e-07
1.24702e-07
1.20345e-07
1.16151e-07
1.1212e-07
1.08254e-07
1.0455e-07
1.01007e-07
9.76226e-08
9.43932e-08
9.13145e-08
8.83813e-08
8.55877e-08
8.29272e-08
8.03928e-08
7.79768e-08
7.56717e-08
7.34698e-08
7.13636e-08
6.93459e-08
6.74105e-08
6.55516e-08
6.37651e-08
6.20476e-08
6.0398e-08
5.88163e-08
5.73046e-08
5.58673e-08
5.45104e-08
5.32426e-08
5.20739e-08
5.10168e-08
5.0085e-08
4.9293e-08
4.86563e-08
4.81896e-08
4.79064e-08
4.78183e-08
4.7934e-08
4.82582e-08
4.87918e-08
4.95314e-08
5.04694e-08
5.15945e-08
5.28921e-08
5.43452e-08
5.59352e-08
5.76418e-08
5.94447e-08
6.13232e-08
6.3257e-08
6.52262e-08
6.72117e-08
6.91952e-08
7.11594e-08
7.30877e-08
7.49648e-08
7.6776e-08
7.85082e-08
8.01488e-08
8.16863e-08
8.31102e-08
8.44109e-08
8.55798e-08
8.66091e-08
8.74922e-08
8.82233e-08
8.87975e-08
8.9211e-08
8.94608e-08
8.95451e-08
8.94626e-08
8.92132e-08
8.87978e-08
8.82179e-08
8.74763e-08
8.65762e-08
8.55222e-08
8.43194e-08
8.29738e-08
8.14925e-08
7.98832e-08
7.81545e-08
7.63159e-08
7.43776e-08
7.23508e-08
7.02474e-08
6.80803e-08
6.58631e-08
6.36105e-08
6.13377e-08
5.90614e-08
5.67988e-08
5.45682e-08
5.23887e-08
5.02802e-08
4.82633e-08
4.63589e-08
4.45875e-08
4.29692e-08
4.15225e-08
4.02635e-08
3.92049e-08
3.83551e-08
3.77171e-08
3.7288e-08
3.70593e-08
3.70172e-08
3.71429e-08
3.74148e-08
3.78089e-08
3.83006e-08
3.88652e-08
3.94792e-08
4.01208e-08
4.077e-08
4.14089e-08
4.20218e-08
4.25951e-08
4.31172e-08
4.35782e-08
4.39701e-08
4.42865e-08
4.45225e-08
4.46743e-08
4.47397e-08
4.47172e-08
4.46067e-08
4.44088e-08
4.41251e-08
4.37581e-08
4.33109e-08
4.27874e-08
4.2192e-08
4.15302e-08
4.08075e-08
4.00304e-08
3.92057e-08
3.83408e-08
3.74436e-08
3.65223e-08
3.55856e-08
3.46426e-08
3.37025e-08
3.27745e-08
3.18683e-08
3.09932e-08
3.01583e-08
2.93726e-08
2.8644e-08
2.79798e-08
2.73859e-08
2.68671e-08
2.64261e-08
2.60642e-08
2.57807e-08
2.55728e-08
2.54362e-08
2.5365e-08
2.53521e-08
2.53892e-08
2.54678e-08
2.55789e-08
2.57135e-08
2.58633e-08
2.60202e-08
2.61769e-08
2.63272e-08
2.64657e-08
2.65882e-08
2.66915e-08