/*--------------------------------*- C++ -*----------------------------------*\
| =========                 |                                                 |
| \\      /  F ield         | OpenFOAM: The Open Source CFD Toolbox           |
|  \\    /   O peration     | Version:  v2012                                 |
|   \\  /    A nd           | Website:  www.openfoam.com                      |
|    \\/     M anipulation  |                                                 |
\*---------------------------------------------------------------------------*/
FoamFile
{
    version     2.0;
    format      ascii;
    class       volScalarField;
    location    "150";
    object      he_filtered;
}
// * * * * * * * * * * * * * * * * * * * * * * * * * * * * * * * * * * * * * //

dimensions      [0 2 -2 0 0 0 0];


internalField   nonuniform List<scalar> 
65536
(
1896.03
1895.02
1893.99
1892.35
1890.23
1887.62
1884.54
1881
1877.02
1872.63
1867.85
1862.71
1857.24
1851.47
1845.43
1839.15
1832.66
1826
1819.2
1812.28
1805.29
1798.25
1791.18
1784.12
1777.08
1770.1
1763.19
1756.37
1749.65
1743.07
1736.62
1730.31
1724.17
1718.2
1712.39
1706.77
1701.33
1696.07
1691
1686.11
1681.41
1676.9
1672.57
1668.43
1664.46
1660.67
1657.06
1653.62
1650.35
1647.24
1644.29
1641.51
1638.87
1636.38
1634.05
1631.85
1629.79
1627.87
1626.07
1624.4
1622.85
1621.42
1620.1
1618.88
1617.77
1616.76
1615.84
1615
1614.26
1613.59
1612.99
1612.47
1612.01
1611.61
1611.27
1610.98
1610.74
1610.54
1610.39
1610.27
1610.18
1610.13
1610.11
1610.11
1610.13
1610.17
1610.23
1610.3
1610.39
1610.49
1610.59
1610.71
1610.83
1610.95
1611.08
1611.22
1611.35
1611.49
1611.62
1611.75
1611.88
1612.01
1612.14
1612.27
1612.39
1612.5
1612.61
1612.72
1612.83
1612.92
1613.02
1613.11
1613.19
1613.27
1613.34
1613.41
1613.47
1613.53
1613.58
1613.63
1613.67
1613.71
1613.74
1613.77
1613.79
1613.81
1613.83
1613.84
1613.84
1613.84
1613.84
1613.84
1613.83
1613.81
1613.8
1613.78
1613.76
1613.73
1613.7
1613.67
1613.64
1613.6
1613.56
1613.52
1613.48
1613.44
1613.39
1613.34
1613.3
1613.25
1613.2
1613.15
1613.09
1613.04
1612.99
1612.93
1612.88
1612.83
1612.77
1612.72
1612.67
1612.61
1612.56
1612.51
1612.46
1612.41
1612.36
1612.31
1612.26
1612.22
1612.17
1612.13
1612.09
1612.05
1612.02
1611.98
1611.95
1611.92
1611.89
1611.86
1611.84
1611.82
1611.8
1611.78
1611.77
1611.76
1611.75
1611.74
1611.74
1611.74
1611.74
1611.75
1611.76
1611.77
1611.79
1611.8
1611.83
1611.85
1611.88
1611.91
1611.94
1611.98
1612.02
1612.06
1612.11
1612.16
1612.22
1612.27
1612.33
1612.39
1612.46
1612.53
1612.6
1612.68
1612.75
1612.84
1612.92
1613.01
1613.1
1613.19
1613.28
1613.38
1613.48
1613.58
1613.69
1613.8
1613.91
1614.02
1614.13
1614.25
1614.37
1614.49
1614.61
1614.74
1614.86
1614.99
1615.12
1615.25
1615.38
1615.52
1615.65
1615.79
1615.93
1616.07
1616.21
1616.35
1616.49
1616.64
1616.78
1616.93
1617.07
1617.22
1617.37
1617.51
1617.66
1617.81
1617.96
1618.11
1618.26
1618.41
1618.56
1618.72
1618.87
1619.02
1619.17
1619.32
1619.48
1619.63
1619.78
1619.94
1620.09
1620.25
1620.4
1620.55
1620.71
1620.86
1621.02
1621.17
1621.33
1621.49
1621.64
1621.8
1621.96
1622.11
1622.27
1622.43
1622.59
1622.74
1622.9
1623.06
1623.22
1623.38
1623.54
1623.7
1623.86
1624.02
1624.18
1624.34
1624.5
1624.67
1624.83
1624.99
1625.15
1625.31
1625.47
1625.64
1625.8
1625.96
1626.12
1626.28
1626.44
1626.6
1626.76
1626.92
1627.08
1627.23
1627.39
1627.55
1627.7
1627.86
1628.01
1628.16
1628.31
1628.46
1628.6
1628.75
1628.89
1629.03
1629.17
1629.31
1629.45
1629.58
1629.71
1629.84
1629.97
1630.09
1630.21
1630.33
1630.44
1630.55
1630.66
1630.77
1630.87
1630.97
1631.07
1631.16
1631.25
1631.34
1631.42
1631.5
1631.57
1631.65
1631.71
1631.78
1631.84
1631.9
1631.95
1632
1632.05
1632.09
1632.13
1632.16
1632.2
1632.23
1632.25
1632.27
1632.29
1632.3
1632.32
1632.32
1632.33
1632.33
1632.33
1632.33
1632.32
1632.31
1632.3
1632.28
1632.26
1632.24
1632.22
1632.2
1632.17
1632.14
1632.11
1632.08
1632.04
1632.01
1631.97
1631.93
1631.89
1631.85
1631.8
1631.76
1631.72
1631.67
1631.63
1631.58
1631.53
1631.49
1631.44
1631.39
1631.34
1631.3
1631.25
1631.2
1631.16
1631.11
1631.07
1631.02
1630.98
1630.94
1630.89
1630.85
1630.81
1630.77
1630.74
1630.7
1630.66
1630.63
1630.6
1630.57
1630.54
1630.51
1630.48
1630.45
1630.43
1630.41
1630.39
1630.37
1630.35
1630.34
1630.32
1630.31
1630.3
1630.29
1630.28
1630.28
1630.27
1630.27
1630.27
1630.27
1630.27
1630.28
1630.28
1630.29
1630.3
1630.31
1630.32
1630.33
1630.34
1630.36
1630.37
1630.39
1630.4
1630.42
1630.44
1630.46
1630.49
1630.51
1630.53
1630.55
1630.58
1630.6
1630.63
1630.65
1630.68
1630.71
1630.73
1630.76
1630.79
1630.82
1630.84
1630.87
1630.9
1630.93
1630.95
1630.98
1631.01
1631.04
1631.06
1631.09
1631.11
1631.14
1631.16
1631.19
1631.21
1631.24
1631.26
1631.28
1631.3
1631.32
1631.34
1631.36
1631.38
1631.4
1631.41
1631.43
1631.44
1631.46
1631.47
1631.48
1631.49
1631.5
1631.51
1631.52
1631.52
1631.53
1631.53
1631.54
1631.54
1631.54
1404.91
1404.35
1403.27
1401.66
1399.59
1397.01
1393.96
1390.44
1386.49
1382.11
1377.35
1372.22
1366.76
1361
1354.97
1348.7
1342.22
1335.57
1328.78
1321.88
1314.89
1307.86
1300.8
1293.75
1286.72
1279.75
1272.85
1266.04
1259.34
1252.76
1246.32
1240.03
1233.9
1227.94
1222.14
1216.53
1211.1
1205.85
1200.79
1195.92
1191.23
1186.73
1182.41
1178.27
1174.31
1170.53
1166.93
1163.5
1160.23
1157.13
1154.18
1151.4
1148.77
1146.28
1143.95
1141.75
1139.69
1137.76
1135.97
1134.29
1132.74
1131.3
1129.98
1128.75
1127.64
1126.61
1125.68
1124.84
1124.09
1123.41
1122.8
1122.26
1121.79
1121.38
1121.02
1120.72
1120.47
1120.26
1120.09
1119.96
1119.86
1119.79
1119.75
1119.74
1119.75
1119.77
1119.82
1119.88
1119.95
1120.03
1120.13
1120.23
1120.34
1120.45
1120.57
1120.69
1120.81
1120.93
1121.05
1121.18
1121.3
1121.41
1121.53
1121.64
1121.75
1121.86
1121.96
1122.06
1122.16
1122.25
1122.33
1122.41
1122.49
1122.56
1122.62
1122.68
1122.74
1122.79
1122.83
1122.87
1122.91
1122.94
1122.97
1122.99
1123.01
1123.02
1123.03
1123.03
1123.03
1123.03
1123.02
1123.01
1123
1122.98
1122.96
1122.94
1122.91
1122.88
1122.85
1122.81
1122.78
1122.74
1122.69
1122.65
1122.61
1122.56
1122.51
1122.46
1122.41
1122.36
1122.3
1122.25
1122.19
1122.14
1122.08
1122.03
1121.97
1121.91
1121.86
1121.8
1121.75
1121.69
1121.64
1121.58
1121.53
1121.48
1121.43
1121.38
1121.33
1121.28
1121.24
1121.19
1121.15
1121.11
1121.07
1121.04
1121
1120.97
1120.94
1120.91
1120.89
1120.86
1120.84
1120.83
1120.81
1120.8
1120.79
1120.78
1120.78
1120.78
1120.78
1120.78
1120.79
1120.8
1120.82
1120.84
1120.86
1120.88
1120.91
1120.94
1120.97
1121.01
1121.05
1121.09
1121.14
1121.19
1121.24
1121.29
1121.35
1121.42
1121.48
1121.55
1121.62
1121.7
1121.77
1121.85
1121.94
1122.02
1122.11
1122.2
1122.3
1122.4
1122.5
1122.6
1122.7
1122.81
1122.92
1123.03
1123.14
1123.26
1123.38
1123.5
1123.62
1123.75
1123.87
1124
1124.13
1124.26
1124.39
1124.53
1124.66
1124.8
1124.94
1125.08
1125.22
1125.36
1125.5
1125.64
1125.79
1125.93
1126.08
1126.23
1126.37
1126.52
1126.67
1126.82
1126.97
1127.12
1127.27
1127.42
1127.57
1127.72
1127.87
1128.02
1128.18
1128.33
1128.48
1128.63
1128.79
1128.94
1129.1
1129.25
1129.4
1129.56
1129.71
1129.87
1130.02
1130.18
1130.33
1130.49
1130.65
1130.8
1130.96
1131.12
1131.27
1131.43
1131.59
1131.75
1131.9
1132.06
1132.22
1132.38
1132.54
1132.7
1132.86
1133.02
1133.18
1133.34
1133.51
1133.67
1133.83
1133.99
1134.15
1134.31
1134.47
1134.64
1134.8
1134.96
1135.12
1135.28
1135.44
1135.6
1135.76
1135.92
1136.08
1136.23
1136.39
1136.55
1136.7
1136.86
1137.01
1137.16
1137.31
1137.46
1137.6
1137.75
1137.89
1138.03
1138.17
1138.31
1138.45
1138.58
1138.71
1138.84
1138.97
1139.09
1139.21
1139.33
1139.44
1139.55
1139.66
1139.77
1139.87
1139.97
1140.07
1140.16
1140.25
1140.34
1140.42
1140.5
1140.57
1140.65
1140.71
1140.78
1140.84
1140.9
1140.95
1141
1141.05
1141.09
1141.13
1141.16
1141.2
1141.23
1141.25
1141.27
1141.29
1141.3
1141.32
1141.32
1141.33
1141.33
1141.33
1141.33
1141.32
1141.31
1141.3
1141.28
1141.26
1141.24
1141.22
1141.2
1141.17
1141.14
1141.11
1141.08
1141.04
1141.01
1140.97
1140.93
1140.89
1140.85
1140.8
1140.76
1140.72
1140.67
1140.63
1140.58
1140.53
1140.49
1140.44
1140.39
1140.35
1140.3
1140.25
1140.21
1140.16
1140.11
1140.07
1140.02
1139.98
1139.94
1139.89
1139.85
1139.81
1139.77
1139.74
1139.7
1139.66
1139.63
1139.6
1139.57
1139.54
1139.51
1139.48
1139.46
1139.43
1139.41
1139.39
1139.37
1139.35
1139.34
1139.32
1139.31
1139.3
1139.29
1139.29
1139.28
1139.28
1139.27
1139.27
1139.27
1139.27
1139.28
1139.28
1139.29
1139.3
1139.31
1139.32
1139.33
1139.34
1139.36
1139.37
1139.39
1139.41
1139.42
1139.44
1139.46
1139.49
1139.51
1139.53
1139.55
1139.58
1139.6
1139.63
1139.66
1139.68
1139.71
1139.73
1139.76
1139.79
1139.82
1139.84
1139.87
1139.9
1139.93
1139.95
1139.98
1140.01
1140.04
1140.06
1140.09
1140.11
1140.14
1140.16
1140.19
1140.21
1140.24
1140.26
1140.28
1140.3
1140.32
1140.34
1140.36
1140.38
1140.4
1140.41
1140.43
1140.44
1140.46
1140.47
1140.48
1140.49
1140.5
1140.51
1140.52
1140.52
1140.53
1140.53
1140.54
1140.54
1140.54
914.803
914.432
913.372
911.796
909.705
907.104
904.025
900.477
896.491
892.085
887.289
882.128
876.635
870.837
864.77
858.462
851.949
845.261
838.432
831.492
824.473
817.404
810.312
803.226
796.168
789.164
782.233
775.396
768.67
762.069
755.608
749.298
743.149
737.169
731.364
725.739
720.299
715.045
709.979
705.102
700.414
695.913
691.598
687.467
683.518
679.747
676.152
672.729
669.475
666.386
663.459
660.689
658.073
655.607
653.287
651.108
649.066
647.158
645.378
643.723
642.188
640.767
639.458
638.255
637.153
636.148
635.235
634.41
633.667
633.002
632.411
631.888
631.43
631.032
630.689
630.399
630.156
629.957
629.799
629.677
629.589
629.531
629.501
629.495
629.51
629.545
629.597
629.664
629.744
629.834
629.934
630.042
630.156
630.274
630.397
630.522
630.648
630.775
630.903
631.029
631.154
631.277
631.397
631.514
631.628
631.738
631.844
631.946
632.043
632.136
632.224
632.307
632.385
632.458
632.526
632.589
632.647
632.7
632.748
632.791
632.829
632.862
632.891
632.915
632.934
632.949
632.96
632.966
632.969
632.967
632.962
632.953
632.94
632.924
632.905
632.882
632.857
632.828
632.797
632.764
632.728
632.689
632.649
632.606
632.562
632.516
632.468
632.419
632.369
632.318
632.265
632.212
632.158
632.104
632.049
631.993
631.938
631.882
631.827
631.772
631.717
631.662
631.609
631.556
631.503
631.452
631.402
631.353
631.305
631.258
631.213
631.17
631.128
631.089
631.051
631.015
630.981
630.949
630.919
630.892
630.867
630.845
630.825
630.808
630.793
630.781
630.772
630.765
630.762
630.761
630.764
630.769
630.778
630.789
630.804
630.821
630.842
630.866
630.894
630.924
630.958
630.995
631.035
631.078
631.125
631.174
631.227
631.283
631.343
631.405
631.471
631.539
631.611
631.686
631.763
631.844
631.927
632.014
632.103
632.195
632.29
632.387
632.487
632.589
632.694
632.802
632.911
633.023
633.138
633.254
633.372
633.493
633.615
633.74
633.866
633.994
634.123
634.255
634.387
634.521
634.657
634.794
634.932
635.071
635.212
635.353
635.495
635.639
635.783
635.928
636.074
636.221
636.368
636.516
636.664
636.813
636.963
637.113
637.263
637.414
637.565
637.716
637.868
638.02
638.173
638.325
638.478
638.631
638.784
638.938
639.092
639.246
639.4
639.555
639.709
639.864
640.019
640.175
640.331
640.486
640.643
640.799
640.956
641.113
641.27
641.428
641.586
641.744
641.903
642.061
642.221
642.38
642.54
642.7
642.86
643.021
643.181
643.342
643.504
643.665
643.826
643.988
644.15
644.311
644.473
644.635
644.796
644.957
645.118
645.279
645.44
645.6
645.759
645.918
646.076
646.234
646.39
646.546
646.701
646.854
647.007
647.158
647.308
647.456
647.603
647.748
647.892
648.033
648.173
648.31
648.446
648.579
648.71
648.838
648.964
649.087
649.208
649.326
649.441
649.553
649.662
649.768
649.87
649.97
650.066
650.159
650.249
650.335
650.417
650.497
650.572
650.644
650.712
650.777
650.838
650.896
650.949
650.999
651.046
651.089
651.128
651.164
651.196
651.224
651.249
651.271
651.289
651.304
651.315
651.323
651.328
651.33
651.329
651.325
651.318
651.308
651.296
651.281
651.263
651.243
651.22
651.196
651.169
651.14
651.109
651.076
651.042
651.006
650.969
650.93
650.889
650.848
650.806
650.762
650.718
650.673
650.628
650.581
650.535
650.488
650.441
650.394
650.347
650.3
650.253
650.207
650.161
650.115
650.07
650.026
649.982
649.939
649.897
649.856
649.816
649.777
649.739
649.703
649.668
649.634
649.601
649.57
649.54
649.512
649.485
649.459
649.436
649.414
649.393
649.374
649.357
649.341
649.327
649.315
649.304
649.295
649.288
649.282
649.278
649.275
649.274
649.275
649.277
649.281
649.286
649.292
649.3
649.309
649.32
649.332
649.345
649.359
649.374
649.391
649.408
649.427
649.446
649.467
649.488
649.51
649.533
649.556
649.581
649.605
649.631
649.656
649.682
649.709
649.736
649.763
649.79
649.817
649.845
649.873
649.9
649.928
649.955
649.982
650.009
650.036
650.062
650.088
650.114
650.139
650.164
650.189
650.212
650.235
650.258
650.28
650.301
650.321
650.341
650.36
650.378
650.395
650.411
650.427
650.441
650.454
650.467
650.479
650.489
650.499
650.507
650.515
650.521
650.527
650.531
650.534
650.536
650.537
425.056
424.435
423.345
421.74
419.631
417.016
413.921
410.357
406.349
401.919
397.095
391.903
386.376
380.542
374.435
368.085
361.529
354.796
347.92
340.933
333.866
326.748
319.607
312.472
305.366
298.314
291.337
284.454
277.683
271.04
264.537
258.187
251.999
245.983
240.143
234.486
229.015
223.732
218.64
213.739
209.027
204.506
200.172
196.024
192.059
188.275
184.668
181.235
177.972
174.876
171.943
169.169
166.55
164.082
161.762
159.584
157.544
155.639
153.863
152.213
150.684
149.27
147.968
146.773
145.68
144.684
143.781
142.965
142.232
141.578
140.997
140.485
140.038
139.651
139.32
139.04
138.808
138.62
138.473
138.362
138.284
138.236
138.216
138.219
138.245
138.289
138.35
138.426
138.514
138.613
138.721
138.836
138.958
139.084
139.213
139.345
139.478
139.612
139.745
139.878
140.008
140.136
140.262
140.384
140.503
140.618
140.729
140.835
140.936
141.033
141.125
141.212
141.293
141.37
141.441
141.507
141.568
141.624
141.675
141.72
141.761
141.797
141.828
141.854
141.875
141.893
141.905
141.914
141.918
141.918
141.914
141.907
141.896
141.881
141.863
141.842
141.818
141.791
141.761
141.729
141.694
141.657
141.617
141.576
141.532
141.487
141.44
141.392
141.343
141.292
141.24
141.188
141.135
141.081
141.026
140.972
140.917
140.862
140.807
140.752
140.698
140.644
140.591
140.538
140.486
140.435
140.385
140.336
140.289
140.243
140.198
140.155
140.114
140.074
140.037
140.001
139.967
139.936
139.906
139.879
139.855
139.832
139.813
139.796
139.781
139.769
139.76
139.754
139.751
139.75
139.753
139.758
139.767
139.779
139.793
139.811
139.832
139.857
139.884
139.915
139.948
139.985
140.026
140.069
140.116
140.166
140.219
140.275
140.334
140.397
140.462
140.531
140.603
140.677
140.755
140.836
140.919
141.006
141.095
141.187
141.282
141.379
141.479
141.582
141.687
141.794
141.904
142.016
142.131
142.247
142.366
142.486
142.609
142.733
142.859
142.987
143.117
143.248
143.381
143.515
143.651
143.788
143.926
144.065
144.206
144.347
144.49
144.633
144.778
144.923
145.069
145.215
145.363
145.511
145.659
145.808
145.958
146.108
146.258
146.409
146.56
146.712
146.864
147.016
147.168
147.321
147.474
147.627
147.78
147.934
148.088
148.242
148.396
148.551
148.706
148.861
149.016
149.171
149.327
149.483
149.639
149.796
149.952
150.11
150.267
150.425
150.583
150.741
150.899
151.058
151.217
151.377
151.537
151.697
151.857
152.018
152.178
152.34
152.501
152.662
152.824
152.985
153.147
153.309
153.47
153.632
153.793
153.955
154.116
154.277
154.437
154.597
154.756
154.915
155.074
155.231
155.388
155.543
155.698
155.852
156.004
156.156
156.305
156.454
156.601
156.746
156.889
157.031
157.17
157.308
157.443
157.576
157.707
157.836
157.962
158.085
158.205
158.323
158.438
158.55
158.659
158.765
158.868
158.967
159.064
159.157
159.246
159.332
159.415
159.494
159.57
159.642
159.71
159.775
159.836
159.893
159.947
159.997
160.044
160.087
160.126
160.162
160.194
160.222
160.247
160.269
160.287
160.302
160.313
160.322
160.327
160.329
160.328
160.324
160.317
160.307
160.295
160.28
160.262
160.242
160.22
160.195
160.168
160.14
160.109
160.076
160.042
160.006
159.969
159.93
159.89
159.849
159.806
159.763
159.719
159.674
159.629
159.583
159.536
159.49
159.443
159.396
159.349
159.302
159.255
159.209
159.163
159.117
159.073
159.028
158.985
158.942
158.9
158.859
158.819
158.78
158.743
158.706
158.671
158.637
158.604
158.573
158.543
158.515
158.488
158.463
158.439
158.417
158.397
158.378
158.361
158.345
158.331
158.319
158.308
158.299
158.292
158.286
158.282
158.279
158.278
158.279
158.281
158.284
158.289
158.295
158.303
158.312
158.323
158.335
158.348
158.362
158.377
158.393
158.411
158.429
158.449
158.469
158.49
158.512
158.535
158.558
158.582
158.607
158.632
158.657
158.684
158.71
158.737
158.764
158.791
158.818
158.845
158.873
158.9
158.928
158.955
158.982
159.009
159.035
159.062
159.088
159.113
159.138
159.163
159.187
159.211
159.234
159.256
159.278
159.299
159.319
159.339
159.358
159.376
159.393
159.409
159.424
159.439
159.452
159.465
159.476
159.487
159.496
159.505
159.512
159.518
159.524
159.528
159.531
159.533
159.534
-64.3413
-64.7845
-65.8504
-67.4539
-69.5734
-72.2127
-75.3385
-78.9389
-82.9884
-87.4642
-92.3363
-97.5811
-103.162
-109.055
-115.22
-121.631
-128.249
-135.045
-141.983
-149.034
-156.164
-163.344
-170.545
-177.739
-184.902
-192.008
-199.037
-205.969
-212.786
-219.471
-226.013
-232.398
-238.617
-244.662
-250.526
-256.204
-261.692
-266.988
-272.091
-277
-281.716
-286.239
-290.571
-294.715
-298.674
-302.45
-306.047
-309.467
-312.716
-315.796
-318.713
-321.468
-324.068
-326.516
-328.816
-330.972
-332.99
-334.873
-336.626
-338.253
-339.76
-341.151
-342.43
-343.603
-344.674
-345.648
-346.531
-347.326
-348.038
-348.673
-349.235
-349.729
-350.159
-350.529
-350.844
-351.108
-351.325
-351.5
-351.634
-351.733
-351.799
-351.836
-351.846
-351.833
-351.799
-351.746
-351.677
-351.594
-351.499
-351.394
-351.28
-351.16
-351.034
-350.903
-350.77
-350.634
-350.498
-350.361
-350.225
-350.091
-349.958
-349.828
-349.701
-349.577
-349.457
-349.341
-349.229
-349.122
-349.02
-348.923
-348.831
-348.744
-348.662
-348.585
-348.514
-348.448
-348.387
-348.332
-348.281
-348.236
-348.195
-348.16
-348.13
-348.104
-348.083
-348.066
-348.054
-348.046
-348.043
-348.043
-348.047
-348.055
-348.067
-348.082
-348.101
-348.123
-348.147
-348.175
-348.206
-348.239
-348.274
-348.312
-348.353
-348.395
-348.439
-348.485
-348.532
-348.581
-348.631
-348.682
-348.734
-348.788
-348.842
-348.896
-348.951
-349.006
-349.062
-349.118
-349.173
-349.228
-349.283
-349.338
-349.392
-349.445
-349.497
-349.549
-349.599
-349.648
-349.696
-349.743
-349.788
-349.832
-349.873
-349.913
-349.952
-349.988
-350.022
-350.054
-350.084
-350.111
-350.136
-350.159
-350.179
-350.197
-350.211
-350.224
-350.233
-350.239
-350.243
-350.244
-350.242
-350.236
-350.228
-350.217
-350.202
-350.185
-350.164
-350.14
-350.113
-350.082
-350.049
-350.012
-349.972
-349.929
-349.883
-349.833
-349.78
-349.724
-349.665
-349.603
-349.537
-349.469
-349.397
-349.323
-349.245
-349.164
-349.081
-348.995
-348.906
-348.814
-348.719
-348.622
-348.522
-348.419
-348.314
-348.207
-348.097
-347.985
-347.871
-347.755
-347.636
-347.516
-347.393
-347.269
-347.143
-347.015
-346.885
-346.754
-346.621
-346.487
-346.352
-346.215
-346.077
-345.937
-345.797
-345.655
-345.513
-345.369
-345.225
-345.08
-344.934
-344.787
-344.64
-344.492
-344.344
-344.195
-344.045
-343.895
-343.745
-343.594
-343.443
-343.291
-343.139
-342.987
-342.835
-342.682
-342.529
-342.376
-342.223
-342.069
-341.915
-341.761
-341.607
-341.452
-341.297
-341.142
-340.987
-340.832
-340.676
-340.52
-340.364
-340.207
-340.05
-339.893
-339.736
-339.578
-339.42
-339.262
-339.103
-338.944
-338.785
-338.626
-338.466
-338.306
-338.145
-337.985
-337.824
-337.663
-337.502
-337.34
-337.179
-337.017
-336.856
-336.694
-336.532
-336.371
-336.209
-336.048
-335.887
-335.726
-335.566
-335.406
-335.246
-335.087
-334.929
-334.772
-334.615
-334.459
-334.305
-334.151
-333.998
-333.847
-333.697
-333.549
-333.402
-333.257
-333.114
-332.972
-332.833
-332.695
-332.56
-332.427
-332.296
-332.167
-332.041
-331.918
-331.798
-331.68
-331.565
-331.453
-331.344
-331.238
-331.135
-331.036
-330.939
-330.846
-330.757
-330.671
-330.588
-330.509
-330.433
-330.361
-330.293
-330.228
-330.167
-330.11
-330.056
-330.006
-329.959
-329.916
-329.877
-329.841
-329.809
-329.78
-329.755
-329.734
-329.715
-329.7
-329.689
-329.68
-329.675
-329.673
-329.674
-329.678
-329.685
-329.694
-329.707
-329.722
-329.739
-329.759
-329.781
-329.806
-329.832
-329.861
-329.892
-329.924
-329.958
-329.994
-330.031
-330.07
-330.11
-330.151
-330.193
-330.236
-330.28
-330.325
-330.37
-330.416
-330.462
-330.508
-330.555
-330.602
-330.649
-330.695
-330.742
-330.788
-330.834
-330.879
-330.924
-330.968
-331.012
-331.054
-331.096
-331.137
-331.177
-331.216
-331.253
-331.289
-331.325
-331.358
-331.391
-331.422
-331.452
-331.48
-331.507
-331.532
-331.555
-331.578
-331.598
-331.617
-331.634
-331.65
-331.664
-331.676
-331.687
-331.696
-331.703
-331.709
-331.713
-331.716
-331.717
-331.717
-331.715
-331.711
-331.706
-331.7
-331.692
-331.683
-331.673
-331.661
-331.648
-331.634
-331.619
-331.603
-331.586
-331.567
-331.548
-331.528
-331.507
-331.485
-331.463
-331.439
-331.416
-331.391
-331.366
-331.341
-331.315
-331.289
-331.262
-331.235
-331.208
-331.181
-331.154
-331.127
-331.1
-331.072
-331.045
-331.018
-330.992
-330.965
-330.939
-330.913
-330.888
-330.863
-330.838
-330.814
-330.791
-330.768
-330.746
-330.724
-330.703
-330.683
-330.663
-330.645
-330.627
-330.61
-330.594
-330.579
-330.564
-330.551
-330.539
-330.527
-330.517
-330.507
-330.499
-330.491
-330.485
-330.48
-330.475
-330.472
-330.47
-330.469
-553.396
-554.01
-555.111
-556.758
-558.916
-561.595
-564.768
-568.415
-572.52
-577.056
-581.993
-587.308
-592.963
-598.934
-605.182
-611.678
-618.385
-625.27
-632.3
-639.443
-646.667
-653.94
-661.234
-668.52
-675.772
-682.966
-690.08
-697.093
-703.987
-710.747
-717.359
-723.81
-730.091
-736.192
-742.109
-747.835
-753.367
-758.702
-763.839
-768.779
-773.52
-778.065
-782.416
-786.575
-790.545
-794.328
-797.93
-801.352
-804.6
-807.677
-810.588
-813.336
-815.926
-818.362
-820.65
-822.792
-824.794
-826.66
-828.396
-830.005
-831.493
-832.864
-834.124
-835.276
-836.327
-837.28
-838.142
-838.916
-839.608
-840.223
-840.764
-841.238
-841.648
-841.999
-842.296
-842.541
-842.741
-842.897
-843.015
-843.097
-843.148
-843.169
-843.165
-843.138
-843.09
-843.024
-842.943
-842.848
-842.741
-842.625
-842.501
-842.37
-842.235
-842.095
-841.953
-841.809
-841.665
-841.521
-841.377
-841.236
-841.097
-840.96
-840.827
-840.698
-840.572
-840.451
-840.335
-840.223
-840.117
-840.015
-839.919
-839.828
-839.743
-839.662
-839.588
-839.519
-839.455
-839.396
-839.343
-839.295
-839.252
-839.215
-839.182
-839.154
-839.131
-839.113
-839.099
-839.089
-839.084
-839.083
-839.085
-839.092
-839.102
-839.116
-839.134
-839.154
-839.178
-839.205
-839.234
-839.266
-839.301
-839.338
-839.377
-839.419
-839.462
-839.507
-839.554
-839.602
-839.651
-839.702
-839.754
-839.807
-839.86
-839.914
-839.969
-840.023
-840.079
-840.134
-840.189
-840.244
-840.299
-840.353
-840.406
-840.459
-840.511
-840.563
-840.613
-840.662
-840.71
-840.756
-840.801
-840.844
-840.886
-840.926
-840.964
-841
-841.034
-841.066
-841.096
-841.123
-841.148
-841.171
-841.191
-841.208
-841.223
-841.235
-841.244
-841.251
-841.254
-841.255
-841.253
-841.247
-841.239
-841.228
-841.213
-841.195
-841.175
-841.151
-841.123
-841.093
-841.059
-841.023
-840.983
-840.939
-840.893
-840.843
-840.79
-840.734
-840.675
-840.613
-840.547
-840.479
-840.407
-840.333
-840.255
-840.174
-840.091
-840.004
-839.915
-839.823
-839.729
-839.631
-839.531
-839.429
-839.324
-839.216
-839.107
-838.995
-838.88
-838.764
-838.645
-838.525
-838.402
-838.278
-838.152
-838.024
-837.894
-837.763
-837.63
-837.496
-837.36
-837.223
-837.085
-836.946
-836.805
-836.663
-836.521
-836.377
-836.233
-836.088
-835.942
-835.795
-835.648
-835.5
-835.351
-835.202
-835.052
-834.902
-834.752
-834.601
-834.45
-834.298
-834.146
-833.994
-833.841
-833.689
-833.536
-833.382
-833.229
-833.075
-832.921
-832.767
-832.613
-832.458
-832.303
-832.148
-831.993
-831.837
-831.681
-831.525
-831.369
-831.212
-831.055
-830.898
-830.741
-830.583
-830.425
-830.267
-830.108
-829.949
-829.79
-829.63
-829.471
-829.31
-829.15
-828.989
-828.829
-828.668
-828.506
-828.345
-828.183
-828.022
-827.86
-827.698
-827.537
-827.375
-827.213
-827.052
-826.891
-826.73
-826.57
-826.41
-826.25
-826.092
-825.933
-825.776
-825.619
-825.464
-825.309
-825.155
-825.003
-824.852
-824.702
-824.553
-824.407
-824.261
-824.118
-823.977
-823.837
-823.699
-823.564
-823.431
-823.3
-823.172
-823.046
-822.923
-822.802
-822.684
-822.569
-822.457
-822.348
-822.242
-822.14
-822.04
-821.944
-821.851
-821.761
-821.675
-821.592
-821.513
-821.438
-821.366
-821.297
-821.233
-821.171
-821.114
-821.06
-821.01
-820.963
-820.92
-820.881
-820.845
-820.813
-820.784
-820.759
-820.737
-820.719
-820.704
-820.692
-820.683
-820.678
-820.676
-820.677
-820.68
-820.687
-820.697
-820.709
-820.723
-820.741
-820.761
-820.783
-820.807
-820.833
-820.862
-820.892
-820.924
-820.958
-820.994
-821.031
-821.07
-821.109
-821.15
-821.192
-821.235
-821.279
-821.323
-821.368
-821.414
-821.46
-821.506
-821.553
-821.599
-821.646
-821.692
-821.739
-821.785
-821.83
-821.876
-821.92
-821.964
-822.007
-822.05
-822.092
-822.132
-822.172
-822.21
-822.248
-822.284
-822.319
-822.353
-822.385
-822.416
-822.446
-822.474
-822.501
-822.526
-822.549
-822.571
-822.592
-822.611
-822.628
-822.643
-822.657
-822.67
-822.68
-822.689
-822.697
-822.703
-822.707
-822.71
-822.711
-822.711
-822.709
-822.705
-822.701
-822.694
-822.687
-822.678
-822.668
-822.656
-822.644
-822.63
-822.615
-822.599
-822.581
-822.563
-822.544
-822.524
-822.503
-822.482
-822.46
-822.437
-822.413
-822.389
-822.364
-822.339
-822.313
-822.287
-822.261
-822.234
-822.207
-822.181
-822.154
-822.126
-822.099
-822.072
-822.046
-822.019
-821.992
-821.966
-821.94
-821.915
-821.889
-821.864
-821.84
-821.816
-821.793
-821.77
-821.748
-821.727
-821.706
-821.686
-821.667
-821.648
-821.63
-821.614
-821.598
-821.583
-821.568
-821.555
-821.543
-821.531
-821.521
-821.512
-821.503
-821.496
-821.49
-821.484
-821.48
-821.477
-821.475
-821.474
-1041.71
-1042.22
-1043.32
-1044.99
-1047.18
-1049.91
-1053.15
-1056.86
-1061.05
-1065.68
-1070.71
-1076.12
-1081.88
-1087.96
-1094.32
-1100.92
-1107.74
-1114.74
-1121.88
-1129.13
-1136.46
-1143.84
-1151.24
-1158.63
-1165.99
-1173.28
-1180.48
-1187.59
-1194.56
-1201.4
-1208.09
-1214.6
-1220.94
-1227.1
-1233.07
-1238.84
-1244.4
-1249.77
-1254.93
-1259.89
-1264.65
-1269.21
-1273.56
-1277.72
-1281.69
-1285.46
-1289.05
-1292.46
-1295.69
-1298.75
-1301.64
-1304.36
-1306.92
-1309.33
-1311.58
-1313.7
-1315.66
-1317.5
-1319.2
-1320.77
-1322.23
-1323.56
-1324.79
-1325.91
-1326.92
-1327.85
-1328.67
-1329.42
-1330.08
-1330.66
-1331.17
-1331.62
-1332
-1332.33
-1332.6
-1332.82
-1333
-1333.13
-1333.23
-1333.3
-1333.33
-1333.33
-1333.31
-1333.27
-1333.21
-1333.13
-1333.03
-1332.93
-1332.81
-1332.68
-1332.55
-1332.41
-1332.27
-1332.12
-1331.97
-1331.82
-1331.67
-1331.52
-1331.37
-1331.23
-1331.08
-1330.94
-1330.81
-1330.67
-1330.55
-1330.42
-1330.3
-1330.19
-1330.08
-1329.98
-1329.88
-1329.79
-1329.7
-1329.62
-1329.55
-1329.48
-1329.41
-1329.35
-1329.3
-1329.25
-1329.21
-1329.17
-1329.14
-1329.11
-1329.09
-1329.07
-1329.06
-1329.05
-1329.04
-1329.04
-1329.05
-1329.05
-1329.06
-1329.08
-1329.1
-1329.12
-1329.14
-1329.17
-1329.2
-1329.23
-1329.27
-1329.3
-1329.34
-1329.39
-1329.43
-1329.48
-1329.52
-1329.57
-1329.62
-1329.67
-1329.73
-1329.78
-1329.83
-1329.89
-1329.94
-1330
-1330.05
-1330.11
-1330.17
-1330.22
-1330.28
-1330.33
-1330.39
-1330.44
-1330.49
-1330.54
-1330.6
-1330.65
-1330.69
-1330.74
-1330.79
-1330.83
-1330.87
-1330.91
-1330.95
-1330.99
-1331.02
-1331.06
-1331.09
-1331.11
-1331.14
-1331.16
-1331.18
-1331.2
-1331.22
-1331.23
-1331.24
-1331.24
-1331.25
-1331.25
-1331.25
-1331.24
-1331.23
-1331.22
-1331.21
-1331.19
-1331.17
-1331.15
-1331.12
-1331.09
-1331.06
-1331.02
-1330.98
-1330.94
-1330.89
-1330.84
-1330.79
-1330.73
-1330.68
-1330.61
-1330.55
-1330.48
-1330.41
-1330.33
-1330.26
-1330.18
-1330.09
-1330.01
-1329.92
-1329.83
-1329.73
-1329.63
-1329.53
-1329.43
-1329.33
-1329.22
-1329.11
-1329
-1328.88
-1328.77
-1328.65
-1328.53
-1328.41
-1328.28
-1328.16
-1328.03
-1327.9
-1327.77
-1327.63
-1327.5
-1327.37
-1327.23
-1327.09
-1326.95
-1326.81
-1326.67
-1326.53
-1326.38
-1326.24
-1326.09
-1325.95
-1325.8
-1325.65
-1325.5
-1325.36
-1325.21
-1325.06
-1324.91
-1324.76
-1324.61
-1324.45
-1324.3
-1324.15
-1324
-1323.85
-1323.69
-1323.54
-1323.39
-1323.23
-1323.08
-1322.93
-1322.77
-1322.62
-1322.46
-1322.31
-1322.15
-1322
-1321.84
-1321.69
-1321.53
-1321.37
-1321.22
-1321.06
-1320.9
-1320.75
-1320.59
-1320.43
-1320.27
-1320.11
-1319.95
-1319.79
-1319.63
-1319.47
-1319.31
-1319.15
-1318.99
-1318.83
-1318.67
-1318.51
-1318.35
-1318.19
-1318.03
-1317.86
-1317.7
-1317.54
-1317.38
-1317.22
-1317.06
-1316.9
-1316.73
-1316.57
-1316.41
-1316.25
-1316.1
-1315.94
-1315.78
-1315.62
-1315.47
-1315.31
-1315.16
-1315.01
-1314.86
-1314.71
-1314.56
-1314.41
-1314.27
-1314.12
-1313.98
-1313.84
-1313.7
-1313.57
-1313.44
-1313.3
-1313.18
-1313.05
-1312.93
-1312.81
-1312.69
-1312.57
-1312.46
-1312.35
-1312.25
-1312.14
-1312.05
-1311.95
-1311.86
-1311.77
-1311.68
-1311.6
-1311.52
-1311.44
-1311.37
-1311.3
-1311.24
-1311.18
-1311.12
-1311.06
-1311.01
-1310.97
-1310.92
-1310.89
-1310.85
-1310.82
-1310.79
-1310.76
-1310.74
-1310.72
-1310.71
-1310.7
-1310.69
-1310.68
-1310.68
-1310.68
-1310.68
-1310.69
-1310.7
-1310.71
-1310.73
-1310.74
-1310.76
-1310.78
-1310.81
-1310.83
-1310.86
-1310.89
-1310.93
-1310.96
-1310.99
-1311.03
-1311.07
-1311.11
-1311.15
-1311.19
-1311.23
-1311.28
-1311.32
-1311.37
-1311.41
-1311.46
-1311.5
-1311.55
-1311.6
-1311.64
-1311.69
-1311.73
-1311.78
-1311.83
-1311.87
-1311.92
-1311.96
-1312
-1312.04
-1312.09
-1312.13
-1312.17
-1312.2
-1312.24
-1312.28
-1312.31
-1312.35
-1312.38
-1312.41
-1312.44
-1312.47
-1312.49
-1312.52
-1312.54
-1312.56
-1312.58
-1312.6
-1312.62
-1312.64
-1312.65
-1312.66
-1312.67