/*--------------------------------*- C++ -*----------------------------------*\
| =========                 |                                                 |
| \\      /  F ield         | OpenFOAM: The Open Source CFD Toolbox           |
|  \\    /   O peration     | Version:  v2012                                 |
|   \\  /    A nd           | Website:  www.openfoam.com                      |
|    \\/     M anipulation  |                                                 |
\*---------------------------------------------------------------------------*/
FoamFile
{
    version     2.0;
    format      ascii;
    class       volScalarField;
    location    "150";
    object      p;
}
// * * * * * * * * * * * * * * * * * * * * * * * * * * * * * * * * * * * * * //

dimensions      [1 -1 -2 0 0 0 0];


internalField   nonuniform List<scalar> 
65536
(
139885
139883
139881
139877
139872
139866
139858
139850
139841
139830
139819
139806
139793
139779
139764
139749
139733
139717
139701
139684
139666
139649
139632
139614
139597
139580
139563
139546
139529
139513
139497
139481
139466
139451
139436
139422
139409
139396
139383
139371
139359
139348
139337
139327
139317
139308
139299
139290
139282
139274
139266
139259
139252
139246
139240
139234
139228
139222
139217
139212
139207
139203
139198
139194
139190
139186
139182
139179
139175
139172
139168
139165
139162
139159
139156
139154
139151
139148
139146
139143
139141
139138
139136
139134
139132
139129
139127
139125
139123
139121
139119
139117
139115
139114
139112
139110
139108
139107
139105
139103
139102
139100
139099
139097
139096
139094
139093
139092
139090
139089
139088
139086
139085
139084
139082
139081
139080
139079
139078
139077
139076
139074
139073
139072
139071
139070
139069
139068
139067
139066
139065
139065
139064
139063
139062
139061
139060
139059
139059
139058
139057
139056
139056
139055
139054
139053
139053
139052
139051
139051
139050
139049
139049
139048
139048
139047
139046
139046
139045
139045
139044
139044
139043
139043
139042
139042
139041
139041
139041
139040
139040
139039
139039
139039
139038
139038
139038
139037
139037
139037
139036
139036
139036
139035
139035
139035
139035
139034
139034
139034
139034
139034
139033
139033
139033
139033
139033
139033
139033
139033
139032
139032
139032
139032
139032
139032
139032
139032
139032
139032
139032
139032
139032
139032
139032
139032
139032
139032
139032
139032
139032
139032
139032
139032
139033
139033
139033
139033
139033
139033
139033
139033
139033
139034
139034
139034
139034
139034
139034
139034
139035
139035
139035
139035
139035
139035
139036
139036
139036
139036
139036
139037
139037
139037
139037
139037
139038
139038
139038
139038
139038
139039
139039
139039
139039
139039
139040
139040
139040
139040
139041
139041
139041
139041
139041
139042
139042
139042
139042
139043
139043
139043
139043
139044
139044
139044
139044
139044
139045
139045
139045
139045
139046
139046
139046
139046
139047
139047
139047
139047
139048
139048
139048
139048
139049
139049
139049
139049
139050
139050
139050
139050
139051
139051
139051
139051
139052
139052
139052
139052
139053
139053
139053
139053
139054
139054
139054
139054
139054
139055
139055
139055
139055
139056
139056
139056
139056
139056
139056
139057
139057
139057
139057
139057
139057
139058
139058
139058
139058
139058
139058
139058
139058
139059
139059
139059
139059
139059
139059
139059
139059
139059
139059
139059
139059
139059
139059
139059
139059
139059
139059
139059
139059
139059
139059
139059
139059
139059
139059
139059
139059
139059
139059
139059
139059
139059
139059
139059
139059
139059
139059
139059
139059
139058
139058
139058
139058
139058
139058
139058
139058
139058
139058
139058
139058
139058
139057
139057
139057
139057
139057
139057
139057
139057
139057
139057
139057
139057
139057
139057
139057
139056
139056
139056
139056
139056
139056
139056
139056
139056
139056
139056
139056
139056
139056
139056
139056
139056
139056
139056
139056
139056
139056
139056
139056
139056
139056
139056
139056
139056
139056
139056
139056
139056
139056
139056
139056
139056
139056
139056
139056
139056
139056
139056
139057
139057
139057
139057
139057
139057
139057
139057
139057
139057
139057
139057
139057
139057
139057
139057
139057
139057
139057
139057
139057
139057
139057
139057
139057
139057
139058
139058
139058
139058
139058
139058
139058
139058
139058
139058
139058
139058
139058
139058
139058
139058
139058
139058
139058
139058
139058
139058
139091
139090
139088
139084
139079
139073
139065
139057
139048
139037
139026
139013
139000
138986
138972
138956
138941
138925
138908
138891
138874
138857
138839
138822
138805
138788
138771
138754
138737
138721
138705
138689
138674
138659
138645
138631
138617
138604
138592
138580
138568
138557
138546
138536
138526
138517
138508
138499
138491
138483
138476
138468
138462
138455
138449
138443
138437
138432
138427
138422
138417
138412
138408
138404
138400
138396
138392
138388
138385
138382
138378
138375
138372
138369
138366
138364
138361
138358
138356
138353
138351
138348
138346
138344
138342
138340
138337
138335
138333
138331
138329
138328
138326
138324
138322
138320
138319
138317
138315
138314
138312
138311
138309
138308
138306
138305
138303
138302
138301
138299
138298
138297
138295
138294
138293
138292
138291
138289
138288
138287
138286
138285
138284
138283
138282
138281
138280
138279
138278
138277
138276
138275
138274
138273
138273
138272
138271
138270
138269
138268
138268
138267
138266
138265
138265
138264
138263
138263
138262
138261
138261
138260
138260
138259
138258
138258
138257
138257
138256
138256
138255
138255
138254
138254
138253
138253
138252
138252
138251
138251
138251
138250
138250
138249
138249
138249
138248
138248
138248
138247
138247
138247
138247
138246
138246
138246
138246
138245
138245
138245
138245
138244
138244
138244
138244
138244
138244
138244
138243
138243
138243
138243
138243
138243
138243
138243
138243
138243
138243
138243
138243
138243
138243
138243
138243
138243
138243
138243
138243
138243
138243
138243
138243
138243
138243
138243
138244
138244
138244
138244
138244
138244
138244
138244
138245
138245
138245
138245
138245
138245
138245
138246
138246
138246
138246
138246
138246
138247
138247
138247
138247
138247
138248
138248
138248
138248
138248
138249
138249
138249
138249
138249
138250
138250
138250
138250
138250
138251
138251
138251
138251
138252
138252
138252
138252
138252
138253
138253
138253
138253
138254
138254
138254
138254
138255
138255
138255
138255
138256
138256
138256
138256
138256
138257
138257
138257
138257
138258
138258
138258
138258
138259
138259
138259
138259
138260
138260
138260
138260
138261
138261
138261
138261
138262
138262
138262
138262
138263
138263
138263
138263
138264
138264
138264
138264
138265
138265
138265
138265
138265
138266
138266
138266
138266
138266
138267
138267
138267
138267
138267
138268
138268
138268
138268
138268
138268
138269
138269
138269
138269
138269
138269
138269
138269
138269
138270
138270
138270
138270
138270
138270
138270
138270
138270
138270
138270
138270
138270
138270
138270
138270
138270
138270
138270
138270
138270
138270
138270
138270
138270
138270
138270
138270
138270
138270
138270
138270
138270
138270
138269
138269
138269
138269
138269
138269
138269
138269
138269
138269
138269
138269
138269
138269
138268
138268
138268
138268
138268
138268
138268
138268
138268
138268
138268
138268
138268
138268
138267
138267
138267
138267
138267
138267
138267
138267
138267
138267
138267
138267
138267
138267
138267
138267
138267
138267
138267
138267
138267
138267
138267
138267
138267
138267
138267
138267
138267
138267
138267
138267
138267
138267
138267
138267
138267
138267
138267
138267
138267
138267
138267
138267
138267
138267
138267
138267
138267
138267
138267
138267
138267
138268
138268
138268
138268
138268
138268
138268
138268
138268
138268
138268
138268
138268
138268
138268
138268
138268
138268
138268
138268
138268
138268
138268
138268
138268
138268
138268
138268
138268
138269
138269
138269
138269
138269
138269
138269
138269
138269
138269
138269
138269
138269
138302
138300
138298
138294
138289
138283
138276
138267
138258
138247
138236
138224
138210
138197
138182
138167
138151
138135
138118
138102
138085
138067
138050
138033
138015
137998
137981
137964
137948
137932
137916
137900
137885
137870
137856
137842
137828
137815
137803
137791
137779
137768
137758
137747
137738
137728
137719
137711
137703
137695
137688
137680
137674
137667
137661
137655
137650
137644
137639
137634
137629
137625
137621
137616
137612
137608
137605
137601
137598
137594
137591
137588
137585
137582
137579
137577
137574
137571
137569
137566
137564
137562
137559
137557
137555
137553
137551
137549
137547
137545
137543
137541
137539
137537
137536
137534
137532
137531
137529
137527
137526
137524
137523
137521
137520
137518
137517
137516
137514
137513
137512
137510
137509
137508
137507
137505
137504
137503
137502
137501
137500
137499
137498
137497
137496
137495
137494
137493
137492
137491
137490
137489
137488
137487
137486
137486
137485
137484
137483
137482
137482
137481
137480
137479
137479
137478
137477
137477
137476
137475
137475
137474
137473
137473
137472
137472
137471
137471
137470
137470
137469
137468
137468
137468
137467
137467
137466
137466
137465
137465
137464
137464
137464
137463
137463
137463
137462
137462
137462
137461
137461
137461
137461
137460
137460
137460
137460
137459
137459
137459
137459
137459
137458
137458
137458
137458
137458
137458
137458
137457
137457
137457
137457
137457
137457
137457
137457
137457
137457
137457
137457
137457
137457
137457
137457
137457
137457
137457
137457
137457
137457
137457
137457
137457
137457
137457
137458
137458
137458
137458
137458
137458
137458
137458
137459
137459
137459
137459
137459
137459
137459
137460
137460
137460
137460
137460
137460
137461
137461
137461
137461
137461
137462
137462
137462
137462
137462
137463
137463
137463
137463
137463
137464
137464
137464
137464
137465
137465
137465
137465
137465
137466
137466
137466
137466
137466
137467
137467
137467
137467
137468
137468
137468
137468
137469
137469
137469
137469
137470
137470
137470
137470
137470
137471
137471
137471
137471
137472
137472
137472
137472
137473
137473
137473
137473
137474
137474
137474
137474
137475
137475
137475
137475
137476
137476
137476
137476
137477
137477
137477
137477
137478
137478
137478
137478
137479
137479
137479
137479
137479
137480
137480
137480
137480
137480
137481
137481
137481
137481
137481
137482
137482
137482
137482
137482
137482
137482
137483
137483
137483
137483
137483
137483
137483
137483
137483
137484
137484
137484
137484
137484
137484
137484
137484
137484
137484
137484
137484
137484
137484
137484
137484
137484
137484
137484
137484
137484
137484
137484
137484
137484
137484
137484
137484
137484
137484
137484
137484
137483
137483
137483
137483
137483
137483
137483
137483
137483
137483
137483
137483
137483
137483
137482
137482
137482
137482
137482
137482
137482
137482
137482
137482
137482
137482
137482
137482
137481
137481
137481
137481
137481
137481
137481
137481
137481
137481
137481
137481
137481
137481
137481
137481
137481
137481
137481
137481
137481
137481
137481
137481
137481
137481
137481
137481
137481
137481
137481
137481
137481
137481
137481
137481
137481
137481
137481
137481
137481
137481
137481
137481
137481
137481
137481
137481
137481
137481
137481
137481
137481
137481
137481
137482
137482
137482
137482
137482
137482
137482
137482
137482
137482
137482
137482
137482
137482
137482
137482
137482
137482
137482
137482
137482
137482
137482
137482
137482
137482
137482
137482
137482
137482
137482
137483
137483
137483
137483
137483
137483
137483
137483
137483
137483
137515
137514
137511
137507
137503
137496
137489
137481
137471
137461
137449
137437
137424
137410
137395
137380
137365
137348
137332
137315
137298
137281
137264
137246
137229
137212
137195
137178
137162
137145
137129
137114
137099
137084
137070
137056
137042
137029
137017
137005
136994
136983
136972
136962
136952
136943
136934
136925
136917
136910
136902
136895
136889
136882
136876
136870
136865
136859
136854
136849
136845
136840
136836
136832
136828
136824
136820
136817
136814
136810
136807
136804
136801
136798
136795
136793
136790
136787
136785
136782
136780
136778
136776
136773
136771
136769
136767
136765
136763
136761
136759
136757
136756
136754
136752
136750
136749
136747
136746
136744
136742
136741
136739
136738
136737
136735
136734
136732
136731
136730
136728
136727
136726
136725
136723
136722
136721
136720
136719
136718
136717
136716
136715
136714
136713
136712
136711
136710
136709
136708
136707
136706
136705
136704
136703
136703
136702
136701
136700
136699
136699
136698
136697
136696
136696
136695
136694
136694
136693
136692
136692
136691
136691
136690
136689
136689
136688
136688
136687
136687
136686
136686
136685
136685
136684
136684
136683
136683
136682
136682
136682
136681
136681
136681
136680
136680
136679
136679
136679
136679
136678
136678
136678
136677
136677
136677
136677
136676
136676
136676
136676
136676
136676
136675
136675
136675
136675
136675
136675
136675
136675
136674
136674
136674
136674
136674
136674
136674
136674
136674
136674
136674
136674
136674
136674
136674
136674
136674
136674
136674
136674
136674
136674
136675
136675
136675
136675
136675
136675
136675
136675
136675
136675
136676
136676
136676
136676
136676
136676
136677
136677
136677
136677
136677
136677
136678
136678
136678
136678
136678
136678
136679
136679
136679
136679
136679
136680
136680
136680
136680
136680
136681
136681
136681
136681
136681
136682
136682
136682
136682
136683
136683
136683
136683
136683
136684
136684
136684
136684
136685
136685
136685
136685
136686
136686
136686
136686
136686
136687
136687
136687
136687
136688
136688
136688
136688
136689
136689
136689
136689
136690
136690
136690
136690
136691
136691
136691
136691
136692
136692
136692
136692
136693
136693
136693
136693
136694
136694
136694
136694
136695
136695
136695
136695
136695
136696
136696
136696
136696
136697
136697
136697
136697
136697
136698
136698
136698
136698
136698
136698
136699
136699
136699
136699
136699
136699
136700
136700
136700
136700
136700
136700
136700
136700
136700
136701
136701
136701
136701
136701
136701
136701
136701
136701
136701
136701
136701
136701
136701
136701
136701
136701
136701
136701
136701
136701
136701
136701
136701
136701
136701
136701
136701
136701
136701
136701
136701
136701
136701
136701
136700
136700
136700
136700
136700
136700
136700
136700
136700
136700
136700
136700
136700
136700
136699
136699
136699
136699
136699
136699
136699
136699
136699
136699
136699
136699
136699
136699
136699
136698
136698
136698
136698
136698
136698
136698
136698
136698
136698
136698
136698
136698
136698
136698
136698
136698
136698
136698
136698
136698
136698
136698
136698
136698
136698
136698
136698
136698
136698
136698
136698
136698
136698
136698
136698
136698
136698
136698
136698
136698
136698
136698
136698
136698
136698
136698
136698
136698
136699
136699
136699
136699
136699
136699
136699
136699
136699
136699
136699
136699
136699
136699
136699
136699
136699
136699
136699
136699
136699
136699
136699
136699
136699
136699
136699
136700
136700
136700
136700
136700
136700
136700
136700
136700
136700
136700
136700
136700
136700
136700
136700
136700
136732
136730
136728
136724
136719
136713
136706
136697
136688
136677
136666
136654
136640
136627
136612
136597
136581
136565
136548
136532
136515
136497
136480
136463
136445
136428
136411
136394
136378
136362
136346
136330
136315
136300
136286
136272
136259
136246
136234
136222
136210
136199
136189
136179
136169
136160
136151
136143
136135
136127
136120
136113
136106
136100
136094
136088
136083
136077
136072
136068
136063
136059
136054
136050
136046
136043
136039
136036
136032
136029
136026
136023
136020
136017
136014
136012
136009
136007
136004
136002
135999
135997
135995
135993
135991
135989
135986
135985
135983
135981
135979
135977
135975
135973
135972
135970
135968
135967
135965
135964
135962
135961
135959
135958
135956
135955
135954
135952
135951
135950
135948
135947
135946
135945
135943
135942
135941
135940
135939
135938
135937
135936
135935
135934
135933
135932
135931
135930
135929
135928
135927
135926
135925
135924
135924
135923
135922
135921
135920
135920
135919
135918
135917
135917
135916
135915
135915
135914
135913
135913
135912
135911
135911
135910
135910
135909
135909
135908
135907
135907
135906
135906
135905
135905
135905
135904
135904
135903
135903
135902
135902
135902
135901
135901
135901
135900
135900
135900
135899
135899
135899
135898
135898
135898
135898
135897
135897
135897
135897
135896
135896
135896
135896
135896
135896
135895
135895
135895
135895
135895
135895
135895
135895
135895
135895
135895
135895
135894
135894
135894
135894
135894
135894
135894
135894
135894
135895
135895
135895
135895
135895
135895
135895
135895
135895
135895
135895
135895
135895
135896
135896
135896
135896
135896
135896
135896
135896
135897
135897
135897
135897
135897
135897
135898
135898
135898
135898
135898
135898
135899
135899
135899
135899
135899
135900
135900
135900
135900
135900
135901
135901
135901
135901
135901
135902
135902
135902
135902
135903
135903
135903
135903
135903
135904
135904
135904
135904
135905
135905
135905
135905
135905
135906
135906
135906
135906
135907
135907
135907
135907
135908
135908
135908
135908
135909
135909
135909
135909
135909
135910
135910
135910
135910
135911
135911
135911
135911
135912
135912
135912
135912
135913
135913
135913
135913
135914
135914
135914
135914
135915
135915
135915
135915
135916
135916
135916
135916
135916
135917
135917
135917
135917
135918
135918
135918
135918
135918
135918
135919
135919
135919
135919
135919
135919
135920
135920
135920
135920
135920
135920
135920
135920
135921
135921
135921
135921
135921
135921
135921
135921
135921
135921
135921
135921
135921
135921
135921
135921
135922
135922
135922
135922
135922
135922
135921
135921
135921
135921
135921
135921
135921
135921
135921
135921
135921
135921
135921
135921
135921
135921
135921
135921
135921
135921
135921
135920
135920
135920
135920
135920
135920
135920
135920
135920
135920
135920
135920
135920
135919
135919
135919
135919
135919
135919
135919
135919
135919
135919
135919
135919
135919
135919
135919
135919
135919
135919
135918
135918
135918
135918
135918
135918
135918
135918
135918
135918
135918
135918
135918
135918
135918
135918
135918
135918
135918
135918
135918
135918
135918
135918
135918
135918
135918
135918
135918
135918
135918
135918
135918
135919
135919
135919
135919
135919
135919
135919
135919
135919
135919
135919
135919
135919
135919
135919
135919
135919
135919
135919
135919
135919
135919
135919
135919
135919
135919
135920
135920
135920
135920
135920
135920
135920
135920
135920
135920
135920
135920
135920
135920
135920
135920
135920
135920
135920
135920
135920
135920
135920
135920
135920
135920
135920
135952
135950
135948
135944
135939
135933
135926
135917
135908
135897
135886
135873
135860
135846
135832
135816
135801
135784
135768
135751
135734
135717
135699
135682
135665
135648
135630
135614
135597
135581
135565
135550
135534
135520
135506
135492
135478
135466
135453
135441
135430
135419
135409
135399
135389
135380
135371
135363
135355
135347
135340
135333
135327
135321
135315
135309
135304
135298
135293
135289
135284
135280
135276
135272
135268
135264
135261
135257
135254
135251
135248
135245
135242
135239
135236
135234
135231
135229
135226
135224
135222
135219
135217
135215
135213
135211
135209
135207
135205
135203
135201
135200
135198
135196
135195
135193
135191
135190
135188
135187
135185
135184
135182
135181
135179
135178
135177
135175
135174
135173
135171
135170
135169
135168
135167
135165
135164
135163
135162
135161
135160
135159
135158
135157
135156
135155
135154
135153
135152
135151
135150
135149
135149
135148
135147
135146
135145
135144
135144
135143
135142
135141
135141
135140
135139
135139
135138
135137
135137
135136
135135
135135
135134
135134
135133
135133
135132
135131
135131
135130
135130
135129
135129
135128
135128
135128
135127
135127
135126
135126
135125
135125
135125
135124
135124
135124
135123
135123
135123
135122
135122
135122
135122
135121
135121
135121
135121
135120
135120
135120
135120
135120
135119
135119
135119
135119
135119
135119
135119
135119
135118
135118
135118
135118
135118
135118
135118
135118
135118
135118
135118
135118
135118
135118
135118
135118
135118
135118
135118
135118
135118
135118
135118
135118
135119
135119
135119
135119
135119
135119
135119
135119
135119
135120
135120
135120
135120
135120
135120
135120
135121
135121
135121
135121
135121
135121
135122
135122
135122
135122
135122
135123
135123
135123
135123
135123
135124
135124
135124
135124
135124
135125
135125
135125
135125
135125
135126
135126
135126
135126
135127
135127
135127
135127
135127
135128
135128
135128
135128
135129
135129
135129
135129
135129
135130
135130
135130
135130
135131
135131
135131
135131
135132
135132
135132
135132
135133
135133
135133
135133
135133
135134
135134
135134
135134
135135
135135
135135
135135
135136
135136
135136
135136
135137
135137
135137
135137
135138
135138
135138
135138
135139
135139
135139
135139
135140
135140
135140
135140
135140
135141
135141
135141
135141
135141
135142
135142
135142
135142
135142
135142
135143
135143
135143
135143
135143
135143
135144
135144
135144
135144
135144
135144
135144
135144
135144
135144
135145
135145
135145
135145
135145
135145
135145
135145
135145
135145
135145
135145
135145
135145
135145
135145
135145
135145
135145
135145
135145
135145
135145
135145
135145
135145
135145
135145
135145
135145
135144
135144
135144
135144
135144
135144
135144
135144
135144
135144
135144
135144
135144
135144
135143
135143
135143
135143
135143
135143
135143
135143
135143
135143
135143
135143
135143
135143
135143
135142
135142
135142
135142
135142
135142
135142
135142
135142
135142
135142
135142
135142
135142
135142
135142
135142
135142
135142
135142
135142
135142
135142
135142
135142
135142
135142
135142
135142
135142
135142
135142
135142
135142
135142
135142
135142
135142
135142
135142
135142
135142
135142
135142
135142
135142
135142
135142
135142
135142
135142
135142
135142
135142
135142
135142
135143
135143
135143
135143
135143
135143
135143
135143
135143
135143
135143
135143
135143
135143
135143
135143
135143
135143
135143
135143
135143
135143
135143
135143
135143
135143
135143
135143
135143
135143
135143
135143
135143
135143
135143
135143
135143
135144
135144
135144
135175
135173
135171
135167
135162
135156
135149
135140
135131
135120
135109
135096
135083
135069
135054
135039
135023
135007
134990
134973
134956
134939
134922
134904
134887
134870
134853
134836
134819
134803
134787
134771
134756
134742
134728
134714
134701
134688
134675
134664
134652
134641
134631
134621
134612
134603
134594
134586
134578
134570
134563
134557
134550
134544
134538
134532
134527
134522
134517
134513
134508
134504
134500
134496
134492
134489
134485
134482
134479
134475
134472
134469
134467
134464
134461
134459
134456
134454
134451
134449
134447
134445
134443
134441
134438
134436
134435
134433
134431
134429
134427
134425
134424
134422
134420
134419
134417
134416
134414
134412
134411
134410
134408
134407
134405
134404
134403
134401
134400
134399
134398
134396
134395
134394
134393
134392
134391
134389
134388
134387
134386
134385
134384
134383
134382
134381
134380
134379
134378
134378
134377
134376
134375
134374
134373
134373
134372
134371
134370
134369
134369
134368
134367
134367
134366
134365
134365
134364
134363
134363
134362
134361
134361
134360
134360
134359
134359
134358
134358
134357
134357
134356
134356
134355
134355
134354
134354
134353
134353
134353
134352
134352
134351
134351
134351
134350
134350
134350
134349
134349
134349
134349
134348
134348
134348
134348
134347
134347
134347
134347
134347
134346
134346
134346
134346
134346
134346
134345
134345
134345
134345
134345
134345
134345
134345
134345
134345
134345
134345
134345
134345
134345
134345
134345
134345
134345
134345
134345
134345
134345
134345
134345
134345
134345
134345
134345
134345
134346
134346
134346
134346
134346
134346
134346
134346
134347
134347
134347
134347
134347
134347
134348
134348
134348
134348
134348
134348
134349
134349
134349
134349
134349
134349
134350
134350
134350
134350
134350
134351
134351
134351
134351
134352
134352
134352
134352
134352
134353
134353
134353
134353
134353
134354
134354
134354
134354
134355
134355
134355
134355
134355
134356
134356
134356
134356
134357
134357
134357
134357
134358
134358
134358
134358
134358
134359
134359
134359
134359
134360
134360
134360
134360
134361
134361
134361
134361
134362
134362
134362
134362
134363
134363
134363
134363
134364
134364
134364
134364
134365
134365
134365
134365
134366
134366
134366
134366
134366
134367
134367
134367
134367
134367
134368
134368
134368
134368
134368
134369
134369
134369
134369
134369
134369
134370
134370
134370
134370
134370
134370
134370
134371
134371
134371
134371
134371
134371
134371
134371
134371
134371
134371
134371
134371
134371
134372
134372
134372
134372
134372
134372
134372
134372
134372
134372
134372
134372
134372
134372
134372
134371
134371
134371
134371
134371
134371
134371
134371
134371
134371
134371
134371
134371
134371
134371
134371
134371
134371
134370
134370
134370
134370
134370
134370
134370
134370
134370
134370
134370
134370
134370
134370
134369
134369
134369
134369
134369
134369
134369
134369
134369
134369
134369
134369
134369
134369
134369
134369
134369
134369
134369
134369
134368
134368
134368
134368
134368
134368
134368
134368
134368
134368
134368
134368
134368
134368
134368
134368
134368
134368
134368
134368
134368
134368
134369
134369
134369
134369
134369
134369
134369
134369
134369
134369
134369
134369
134369
134369
134369
134369
134369
134369
134369
134369
134369
134369
134369
134369
134369
134369
134369
134369
134370
134370
134370
134370
134370
134370
134370
134370
134370
134370
134370
134370
134370
134370
134370
134370
134370
134370
134370
134370
134370
134370
134370
134370
134370
134370
134370
134370
134370
134370
134370
134401
134400
134397
134393
134388
134382
134375
134366
134357
134346
134335
134322
134309
134295
134280
134265
134249
134232
134216
134199
134181
134164
134147
134129
134112
134094
134077
134060
134044
134028
134012
133996
133981
133966
133952
133938
133925
133912
133900
133888
133877
133866
133856
133846
133837
133828
133819
133811
133804
133796
133789
133782
133776
133770
133764
133759
133754
133749
133744
133739
133735
133731
133727
133723
133719
133716
133712
133709
133706
133703
133700
133697
133695
133692
133689
133687
133684
133682
133680
133677
133675
133673
133671
133669
133667
133665
133663
133661
133659
133658
133656
133654
133653
133651
133649
133648
133646
133645
133643
133642
133640
133639
133637
133636
133635
133633
133632
133631
133629
133628
133627
133626
133624
133623
133622
133621
133620
133619
133618
133617
133616
133615
133614
133613
133612
133611
133610
133609
133608
133607
133606
133605
133605
133604
133603
133602
133601
133601
133600
133599
133598
133598
133597
133596
133596
133595
133594
133594
133593
133592
133592
133591
133591
133590
133589
133589
133588
133588
133587
133587
133586
133586
133585
133585
133584
133584
133584
133583
133583
133582
133582
133582
133581
133581
133581
133580
133580
133580
133579
133579
133579
133578
133578
133578
133578
133577
133577
133577
133577
133577
133576
133576
133576
133576
133576
133576
133575
133575
133575
133575
133575
133575
133575
133575
133575
133575
133575
133575
133575
133575
133575
133575
133575
133575
133575
133575
133575
133575
133575
133575
133575
133575
133575
133575
133575
133575
133575
133575
133576
133576
133576
133576
133576
133576
133576
133576
133577
133577
133577
133577
133577
133577
133578
133578
133578
133578
133578
133578
133579
133579
133579
133579
133579
133580
133580
133580
133580
133580
133581
133581
133581
133581
133581
133582
133582
133582
133582
133582
133583
133583
133583
133583
133584
133584
133584
133584
133584
133585
133585
133585
133585
133586
133586
133586
133586
133586
133587
133587
133587
133587
133588
133588
133588
133588
133589
133589
133589
133589
133590
133590
133590
133590
133591
133591
133591
133591
133591
133592
133592
133592
133592
133593
133593
133593
133593
133594
133594
133594
133594
133595
133595
133595
133595
133596
133596
133596
133596
133596
133597
133597
133597
133597
133597
133598
133598
133598
133598
133598
133599
133599
133599
133599
133599
133599
133600
133600
133600
133600
133600
133600
133600
133600
133601
133601
133601
133601
133601
133601
133601
133601
133601
133601
133601
133601
133601
133601
133601
133601
133601
133601
133601
133601
133601
133601
133601
133601
133601
133601
133601
133601
133601
133601
133601
133601
133601
133601
133601
133601
133601
133601
133601
133601
133601
133601
133600
133600
133600
133600
133600
133600
133600
133600
133600
133600
133600
133600
133600
133600
133599
133599
133599
133599
133599
133599
133599
133599
133599
133599
133599
133599
133599
133599
133599
133599
133599
133599
133598
133598
133598
133598
133598
133598
133598
133598
133598
133598
133598
133598
133598
133598
133598
133598
133598
133598
133598
133598
133598
133598
133598
133598
133598
133598
133598
133598
133598
133598
133598
133598
133598
133599
133599
133599
133599
133599
133599
133599
133599
133599
133599
133599
133599
133599
133599
133599
133599
133599
133599
133599
133599
133599
133599
133599
133599
133599
133599
133599
133599
133600
133600
133600
133600
133600
133600
133600
133600
133600
133600
133600
133600
133600
133600
133600
133600
133600
133600
133600
133600
133600
133600
133600
133600
133600
133630
133629
133627
133623
133618
133612
133604
133596
133586
133575
133564
133551
133538
133523
133509
133493
133477
133461
133444
133427
133409
133392
133374
133357
133339
133322
133305
133288
133271
133255
133239
133223
133208
133194
133179
133166
133153
133140
133128
133116
133105
133094
133084
133074
133065
133056
133048
133040
133032
133025
133018
133011
133005
132999
132993
132988
132983
132978
132973
132969
132965
132961
132957
132953
132950
132946
132943