/*--------------------------------*- C++ -*----------------------------------*\
| =========                 |                                                 |
| \\      /  F ield         | OpenFOAM: The Open Source CFD Toolbox           |
|  \\    /   O peration     | Version:  v2012                                 |
|   \\  /    A nd           | Website:  www.openfoam.com                      |
|    \\/     M anipulation  |                                                 |
\*---------------------------------------------------------------------------*/
FoamFile
{
    version     2.0;
    format      ascii;
    class       volScalarField;
    location    "150";
    object      p_rgh;
}
// * * * * * * * * * * * * * * * * * * * * * * * * * * * * * * * * * * * * * //

dimensions      [1 -1 -2 0 0 0 0];


internalField   nonuniform List<scalar> 
65536
(
40281.9
40280.7
40278.1
40274.4
40269.4
40263.2
40255.8
40247.4
40237.8
40227.3
40215.8
40203.4
40190.2
40176.2
40161.5
40146.2
40130.4
40114.2
40097.5
40080.6
40063.4
40046.1
40028.6
40011.2
39993.8
39976.5
39959.3
39942.3
39925.6
39909.2
39893.2
39877.4
39862.1
39847.2
39832.7
39818.7
39805.1
39792
39779.3
39767.2
39755.5
39744.2
39733.5
39723.1
39713.2
39703.8
39694.7
39686.1
39677.8
39669.9
39662.4
39655.2
39648.3
39641.7
39635.5
39629.5
39623.7
39618.3
39613
39608
39603.2
39598.6
39594.2
39589.9
39585.8
39581.9
39578.1
39574.4
39570.9
39567.5
39564.2
39561.1
39558
39555
39552.1
39549.3
39546.6
39543.9
39541.3
39538.8
39536.4
39534
39531.7
39529.4
39527.2
39525
39522.9
39520.8
39518.8
39516.8
39514.9
39513
39511.1
39509.3
39507.5
39505.7
39504
39502.3
39500.7
39499
39497.4
39495.9
39494.4
39492.8
39491.4
39489.9
39488.5
39487.1
39485.7
39484.4
39483
39481.7
39480.5
39479.2
39478
39476.8
39475.6
39474.4
39473.2
39472.1
39471
39469.9
39468.8
39467.8
39466.8
39465.7
39464.7
39463.8
39462.8
39461.8
39460.9
39460
39459.1
39458.2
39457.4
39456.5
39455.7
39454.8
39454
39453.2
39452.5
39451.7
39451
39450.2
39449.5
39448.8
39448.1
39447.4
39446.7
39446.1
39445.4
39444.8
39444.2
39443.6
39443
39442.4
39441.8
39441.3
39440.7
39440.2
39439.7
39439.2
39438.7
39438.2
39437.7
39437.3
39436.8
39436.4
39435.9
39435.5
39435.1
39434.7
39434.3
39434
39433.6
39433.2
39432.9
39432.6
39432.2
39431.9
39431.6
39431.3
39431.1
39430.8
39430.5
39430.3
39430.1
39429.8
39429.6
39429.4
39429.2
39429
39428.9
39428.7
39428.5
39428.4
39428.3
39428.1
39428
39427.9
39427.8
39427.7
39427.6
39427.6
39427.5
39427.4
39427.4
39427.4
39427.3
39427.3
39427.3
39427.3
39427.3
39427.3
39427.3
39427.3
39427.4
39427.4
39427.5
39427.5
39427.6
39427.6
39427.7
39427.8
39427.9
39428
39428.1
39428.2
39428.3
39428.4
39428.5
39428.6
39428.8
39428.9
39429
39429.2
39429.3
39429.5
39429.6
39429.8
39430
39430.1
39430.3
39430.5
39430.6
39430.8
39431
39431.2
39431.4
39431.6
39431.8
39431.9
39432.1
39432.3
39432.5
39432.7
39432.9
39433.2
39433.4
39433.6
39433.8
39434
39434.2
39434.4
39434.6
39434.8
39435.1
39435.3
39435.5
39435.7
39435.9
39436.2
39436.4
39436.6
39436.8
39437.1
39437.3
39437.5
39437.8
39438
39438.2
39438.5
39438.7
39438.9
39439.2
39439.4
39439.6
39439.9
39440.1
39440.4
39440.6
39440.8
39441.1
39441.3
39441.6
39441.8
39442.1
39442.3
39442.6
39442.8
39443.1
39443.3
39443.6
39443.8
39444.1
39444.3
39444.6
39444.8
39445.1
39445.3
39445.6
39445.8
39446.1
39446.3
39446.6
39446.8
39447.1
39447.3
39447.6
39447.8
39448.1
39448.3
39448.5
39448.8
39449
39449.2
39449.5
39449.7
39449.9
39450.1
39450.3
39450.5
39450.8
39451
39451.2
39451.3
39451.5
39451.7
39451.9
39452.1
39452.3
39452.4
39452.6
39452.7
39452.9
39453
39453.2
39453.3
39453.4
39453.6
39453.7
39453.8
39453.9
39454
39454.1
39454.2
39454.3
39454.3
39454.4
39454.5
39454.5
39454.6
39454.6
39454.7
39454.7
39454.8
39454.8
39454.8
39454.8
39454.8
39454.8
39454.8
39454.8
39454.8
39454.8
39454.8
39454.8
39454.7
39454.7
39454.7
39454.6
39454.6
39454.5
39454.5
39454.4
39454.4
39454.3
39454.3
39454.2
39454.1
39454.1
39454
39453.9
39453.9
39453.8
39453.7
39453.6
39453.6
39453.5
39453.4
39453.3
39453.3
39453.2
39453.1
39453
39453
39452.9
39452.8
39452.7
39452.7
39452.6
39452.5
39452.4
39452.4
39452.3
39452.3
39452.2
39452.1
39452.1
39452
39452
39451.9
39451.9
39451.8
39451.8
39451.7
39451.7
39451.7
39451.6
39451.6
39451.6
39451.5
39451.5
39451.5
39451.5
39451.5
39451.4
39451.4
39451.4
39451.4
39451.4
39451.4
39451.4
39451.4
39451.4
39451.4
39451.4
39451.5
39451.5
39451.5
39451.5
39451.5
39451.5
39451.6
39451.6
39451.6
39451.7
39451.7
39451.7
39451.8
39451.8
39451.8
39451.9
39451.9
39451.9
39452
39452
39452.1
39452.1
39452.1
39452.2
39452.2
39452.3
39452.3
39452.3
39452.4
39452.4
39452.5
39452.5
39452.5
39452.6
39452.6
39452.7
39452.7
39452.7
39452.8
39452.8
39452.9
39452.9
39452.9
39453
39453
39453
39453
39453.1
39453.1
39453.1
39453.1
39453.2
39453.2
39453.2
39453.2
39453.2
39453.3
39453.3
39453.3
39453.3
39453.3
39453.3
39453.3
39453.3
39453.3
40278.8
40277.6
40275
40271.3
40266.3
40260.1
40252.7
40244.2
40234.7
40224.1
40212.6
40200.2
40186.9
40172.9
40158.2
40142.9
40127.1
40110.8
40094.2
40077.2
40060
40042.6
40025.2
40007.7
39990.3
39972.9
39955.7
39938.8
39922.1
39905.6
39889.5
39873.8
39858.5
39843.5
39829
39815
39801.4
39788.3
39775.7
39763.5
39751.8
39740.6
39729.8
39719.5
39709.6
39700.1
39691.1
39682.4
39674.2
39666.3
39658.8
39651.6
39644.7
39638.1
39631.9
39625.9
39620.2
39614.7
39609.5
39604.5
39599.7
39595.1
39590.7
39586.4
39582.3
39578.4
39574.6
39571
39567.5
39564.1
39560.8
39557.7
39554.6
39551.6
39548.7
39545.9
39543.2
39540.6
39538
39535.5
39533
39530.7
39528.3
39526.1
39523.9
39521.7
39519.6
39517.5
39515.5
39513.5
39511.6
39509.7
39507.8
39506
39504.2
39502.4
39500.7
39499
39497.4
39495.8
39494.2
39492.6
39491.1
39489.6
39488.1
39486.7
39485.2
39483.8
39482.5
39481.1
39479.8
39478.5
39477.2
39476
39474.7
39473.5
39472.3
39471.2
39470
39468.9
39467.8
39466.7
39465.6
39464.6
39463.5
39462.5
39461.5
39460.5
39459.6
39458.6
39457.7
39456.8
39455.9
39455
39454.1
39453.3
39452.4
39451.6
39450.8
39450
39449.3
39448.5
39447.7
39447
39446.3
39445.6
39444.9
39444.2
39443.5
39442.9
39442.2
39441.6
39441
39440.4
39439.8
39439.2
39438.6
39438.1
39437.5
39437
39436.5
39436
39435.5
39435
39434.5
39434
39433.6
39433.2
39432.7
39432.3
39431.9
39431.5
39431.1
39430.7
39430.4
39430
39429.7
39429.4
39429
39428.7
39428.4
39428.1
39427.9
39427.6
39427.3
39427.1
39426.9
39426.6
39426.4
39426.2
39426
39425.8
39425.7
39425.5
39425.3
39425.2
39425.1
39424.9
39424.8
39424.7
39424.6
39424.5
39424.4
39424.4
39424.3
39424.2
39424.2
39424.2
39424.1
39424.1
39424.1
39424.1
39424.1
39424.1
39424.1
39424.1
39424.2
39424.2
39424.3
39424.3
39424.4
39424.4
39424.5
39424.6
39424.7
39424.8
39424.9
39425
39425.1
39425.2
39425.3
39425.4
39425.6
39425.7
39425.8
39426
39426.1
39426.3
39426.4
39426.6
39426.8
39426.9
39427.1
39427.3
39427.4
39427.6
39427.8
39428
39428.2
39428.4
39428.6
39428.7
39428.9
39429.1
39429.3
39429.5
39429.7
39429.9
39430.2
39430.4
39430.6
39430.8
39431
39431.2
39431.4
39431.6
39431.9
39432.1
39432.3
39432.5
39432.7
39433
39433.2
39433.4
39433.6
39433.9
39434.1
39434.3
39434.6
39434.8
39435
39435.3
39435.5
39435.7
39436
39436.2
39436.4
39436.7
39436.9
39437.2
39437.4
39437.6
39437.9
39438.1
39438.4
39438.6
39438.9
39439.1
39439.4
39439.6
39439.9
39440.1
39440.4
39440.6
39440.9
39441.1
39441.4
39441.6
39441.9
39442.1
39442.4
39442.6
39442.9
39443.1
39443.4
39443.6
39443.9
39444.1
39444.4
39444.6
39444.9
39445.1
39445.3
39445.6
39445.8
39446
39446.3
39446.5
39446.7
39446.9
39447.1
39447.3
39447.5
39447.8
39448
39448.1
39448.3
39448.5
39448.7
39448.9
39449.1
39449.2
39449.4
39449.5
39449.7
39449.8
39450
39450.1
39450.2
39450.4
39450.5
39450.6
39450.7
39450.8
39450.9
39451
39451.1
39451.1
39451.2
39451.3
39451.3
39451.4
39451.4
39451.5
39451.5
39451.6
39451.6
39451.6
39451.6
39451.6
39451.6
39451.6
39451.6
39451.6
39451.6
39451.6
39451.6
39451.5
39451.5
39451.5
39451.4
39451.4
39451.3
39451.3
39451.2
39451.2
39451.1
39451.1
39451
39450.9
39450.9
39450.8
39450.7
39450.7
39450.6
39450.5
39450.4
39450.4
39450.3
39450.2
39450.1
39450.1
39450
39449.9
39449.8
39449.8
39449.7
39449.6
39449.5
39449.5
39449.4
39449.3
39449.3
39449.2
39449.1
39449.1
39449
39448.9
39448.9
39448.8
39448.8
39448.7
39448.7
39448.6
39448.6
39448.5
39448.5
39448.5
39448.4
39448.4
39448.4
39448.3
39448.3
39448.3
39448.3
39448.3
39448.2
39448.2
39448.2
39448.2
39448.2
39448.2
39448.2
39448.2
39448.2
39448.2
39448.2
39448.3
39448.3
39448.3
39448.3
39448.3
39448.4
39448.4
39448.4
39448.4
39448.5
39448.5
39448.5
39448.6
39448.6
39448.6
39448.7
39448.7
39448.7
39448.8
39448.8
39448.9
39448.9
39448.9
39449
39449
39449.1
39449.1
39449.1
39449.2
39449.2
39449.3
39449.3
39449.3
39449.4
39449.4
39449.5
39449.5
39449.5
39449.6
39449.6
39449.7
39449.7
39449.7
39449.8
39449.8
39449.8
39449.8
39449.9
39449.9
39449.9
39449.9
39450
39450
39450
39450
39450
39450.1
39450.1
39450.1
39450.1
39450.1
39450.1
39450.1
39450.1
39450.1
40272.6
40271.3
40268.8
40265
40260
40253.8
40246.4
40237.9
40228.3
40217.7
40206.2
40193.7
40180.4
40166.4
40151.7
40136.3
40120.4
40104.1
40087.4
40070.4
40053.1
40035.7
40018.2
40000.7
39983.2
39965.9
39948.6
39931.6
39914.9
39898.4
39882.3
39866.5
39851.2
39836.2
39821.7
39807.7
39794.1
39781
39768.3
39756.1
39744.4
39733.2
39722.4
39712.1
39702.3
39692.8
39683.8
39675.2
39666.9
39659
39651.5
39644.4
39637.5
39631
39624.8
39618.8
39613.1
39607.6
39602.4
39597.5
39592.7
39588.1
39583.7
39579.5
39575.4
39571.5
39567.8
39564.1
39560.6
39557.3
39554
39550.9
39547.8
39544.8
39542
39539.2
39536.5
39533.9
39531.3
39528.8
39526.4
39524
39521.7
39519.4
39517.2
39515.1
39513
39510.9
39508.9
39506.9
39505
39503.1
39501.2
39499.4
39497.6
39495.9
39494.2
39492.5
39490.9
39489.2
39487.7
39486.1
39484.6
39483.1
39481.6
39480.2
39478.7
39477.3
39476
39474.6
39473.3
39472
39470.7
39469.5
39468.3
39467
39465.9
39464.7
39463.5
39462.4
39461.3
39460.2
39459.2
39458.1
39457.1
39456.1
39455.1
39454.1
39453.1
39452.2
39451.3
39450.3
39449.4
39448.6
39447.7
39446.9
39446
39445.2
39444.4
39443.6
39442.8
39442.1
39441.3
39440.6
39439.9
39439.2
39438.5
39437.8
39437.1
39436.5
39435.8
39435.2
39434.6
39434
39433.4
39432.8
39432.2
39431.7
39431.1
39430.6
39430.1
39429.6
39429.1
39428.6
39428.1
39427.6
39427.2
39426.7
39426.3
39425.9
39425.5
39425.1
39424.7
39424.3
39424
39423.6
39423.3
39423
39422.6
39422.3
39422
39421.7
39421.5
39421.2
39420.9
39420.7
39420.5
39420.2
39420
39419.8
39419.6
39419.4
39419.3
39419.1
39418.9
39418.8
39418.7
39418.5
39418.4
39418.3
39418.2
39418.1
39418
39418
39417.9
39417.8
39417.8
39417.8
39417.7
39417.7
39417.7
39417.7
39417.7
39417.7
39417.7
39417.7
39417.8
39417.8
39417.9
39417.9
39418
39418
39418.1
39418.2
39418.3
39418.4
39418.5
39418.6
39418.7
39418.8
39418.9
39419
39419.2
39419.3
39419.4
39419.6
39419.7
39419.9
39420
39420.2
39420.4
39420.5
39420.7
39420.9
39421
39421.2
39421.4
39421.6
39421.8
39422
39422.2
39422.4
39422.5
39422.7
39422.9
39423.1
39423.4
39423.6
39423.8
39424
39424.2
39424.4
39424.6
39424.8
39425
39425.3
39425.5
39425.7
39425.9
39426.1
39426.4
39426.6
39426.8
39427
39427.2
39427.5
39427.7
39427.9
39428.2
39428.4
39428.6
39428.9
39429.1
39429.3
39429.6
39429.8
39430
39430.3
39430.5
39430.8
39431
39431.3
39431.5
39431.7
39432
39432.2
39432.5
39432.7
39433
39433.2
39433.5
39433.7
39434
39434.2
39434.5
39434.7
39435
39435.3
39435.5
39435.8
39436
39436.3
39436.5
39436.8
39437
39437.3
39437.5
39437.7
39438
39438.2
39438.5
39438.7
39438.9
39439.2
39439.4
39439.6
39439.9
39440.1
39440.3
39440.5
39440.7
39441
39441.2
39441.4
39441.6
39441.8
39441.9
39442.1
39442.3
39442.5
39442.7
39442.8
39443
39443.1
39443.3
39443.4
39443.6
39443.7
39443.8
39444
39444.1
39444.2
39444.3
39444.4
39444.5
39444.6
39444.7
39444.8
39444.8
39444.9
39444.9
39445
39445.1
39445.1
39445.1
39445.2
39445.2
39445.2
39445.2
39445.2
39445.2
39445.2
39445.2
39445.2
39445.2
39445.2
39445.2
39445.1
39445.1
39445.1
39445
39445
39445
39444.9
39444.9
39444.8
39444.7
39444.7
39444.6
39444.6
39444.5
39444.4
39444.4
39444.3
39444.2
39444.1
39444.1
39444
39443.9
39443.8
39443.8
39443.7
39443.6
39443.5
39443.4
39443.4
39443.3
39443.2
39443.1
39443.1
39443
39442.9
39442.9
39442.8
39442.7
39442.7
39442.6
39442.6
39442.5
39442.4
39442.4
39442.3
39442.3
39442.2
39442.2
39442.2
39442.1
39442.1
39442
39442
39442
39442
39441.9
39441.9
39441.9
39441.9
39441.9
39441.8
39441.8
39441.8
39441.8
39441.8
39441.8
39441.8
39441.8
39441.9
39441.9
39441.9
39441.9
39441.9
39441.9
39441.9
39442
39442
39442
39442
39442.1
39442.1
39442.1
39442.2
39442.2
39442.2
39442.3
39442.3
39442.4
39442.4
39442.4
39442.5
39442.5
39442.5
39442.6
39442.6
39442.7
39442.7
39442.8
39442.8
39442.8
39442.9
39442.9
39443
39443
39443
39443.1
39443.1
39443.2
39443.2
39443.2
39443.3
39443.3
39443.3
39443.4
39443.4
39443.4
39443.5
39443.5
39443.5
39443.5
39443.6
39443.6
39443.6
39443.6
39443.6
39443.6
39443.7
39443.7
39443.7
39443.7
39443.7
39443.7
39443.7
39443.7
39443.7
40263.3
40262
40259.5
40255.7
40250.6
40244.4
40237
40228.4
40218.8
40208.2
40196.6
40184.1
40170.7
40156.6
40141.8
40126.4
40110.5
40094.1
40077.3
40060.2
40042.9
40025.4
40007.8
39990.2
39972.7
39955.3
39938
39920.9
39904.1
39887.6
39871.5
39855.7
39840.3
39825.3
39810.8
39796.7
39783.1
39770
39757.3
39745.1
39733.4
39722.2
39711.5
39701.2
39691.3
39681.9
39672.9
39664.3
39656.1
39648.2
39640.7
39633.6
39626.8
39620.3
39614.1
39608.1
39602.5
39597.1
39591.9
39586.9
39582.2
39577.6
39573.3
39569.1
39565.1
39561.2
39557.5
39553.9
39550.4
39547.1
39543.8
39540.7
39537.7
39534.7
39531.9
39529.1
39526.4
39523.8
39521.3
39518.8
39516.4
39514
39511.7
39509.5
39507.3
39505.2
39503.1
39501
39499
39497.1
39495.1
39493.3
39491.4
39489.6
39487.8
39486.1
39484.4
39482.7
39481.1
39479.5
39477.9
39476.4
39474.8
39473.3
39471.9
39470.4
39469
39467.6
39466.3
39464.9
39463.6
39462.3
39461.1
39459.8
39458.6
39457.4
39456.2
39455
39453.9
39452.8
39451.7
39450.6
39449.5
39448.5
39447.4
39446.4
39445.4
39444.5
39443.5
39442.6
39441.6
39440.7
39439.8
39439
39438.1
39437.2
39436.4
39435.6
39434.8
39434
39433.2
39432.5
39431.7
39431
39430.3
39429.6
39428.9
39428.2
39427.5
39426.9
39426.2
39425.6
39425
39424.4
39423.8
39423.2
39422.6
39422.1
39421.5
39421
39420.5
39420
39419.5
39419
39418.5
39418.1
39417.6
39417.2
39416.7
39416.3
39415.9
39415.5
39415.1
39414.8
39414.4
39414.1
39413.7
39413.4
39413.1
39412.8
39412.5
39412.2
39411.9
39411.6
39411.4
39411.1
39410.9
39410.7
39410.5
39410.2
39410.1
39409.9
39409.7
39409.5
39409.4
39409.2
39409.1
39409
39408.8
39408.7
39408.6
39408.5
39408.5
39408.4
39408.3
39408.3
39408.2
39408.2
39408.2
39408.1
39408.1
39408.1
39408.1
39408.1
39408.2
39408.2
39408.2
39408.3
39408.3
39408.4
39408.4
39408.5
39408.6
39408.6
39408.7
39408.8
39408.9
39409
39409.1
39409.2
39409.4
39409.5
39409.6
39409.7
39409.9
39410
39410.2
39410.3
39410.5
39410.6
39410.8
39411
39411.1
39411.3
39411.5
39411.7
39411.9
39412
39412.2
39412.4
39412.6
39412.8
39413
39413.2
39413.4
39413.6
39413.8
39414
39414.2
39414.4
39414.6
39414.8
39415
39415.3
39415.5
39415.7
39415.9
39416.1
39416.4
39416.6
39416.8
39417
39417.2
39417.5
39417.7
39417.9
39418.2
39418.4
39418.6
39418.8
39419.1
39419.3
39419.5
39419.8
39420
39420.3
39420.5
39420.7
39421
39421.2
39421.5
39421.7
39421.9
39422.2
39422.4
39422.7
39422.9
39423.2
39423.4
39423.7
39423.9
39424.2
39424.4
39424.7
39424.9
39425.2
39425.4
39425.7
39425.9
39426.2
39426.5
39426.7
39427
39427.2
39427.5
39427.7
39427.9
39428.2
39428.4
39428.7
39428.9
39429.2
39429.4
39429.6
39429.9
39430.1
39430.3
39430.5
39430.8
39431
39431.2
39431.4
39431.6
39431.8
39432
39432.2
39432.4
39432.6
39432.8
39432.9
39433.1
39433.3
39433.4
39433.6
39433.7
39433.9
39434
39434.2
39434.3
39434.4
39434.5
39434.6
39434.8
39434.9
39434.9
39435
39435.1
39435.2
39435.3
39435.3
39435.4
39435.4
39435.5
39435.5
39435.6
39435.6
39435.6
39435.7
39435.7
39435.7
39435.7
39435.7
39435.7
39435.7
39435.7
39435.6
39435.6
39435.6
39435.6
39435.5
39435.5
39435.4
39435.4
39435.4
39435.3
39435.2
39435.2
39435.1
39435.1
39435
39434.9
39434.9
39434.8
39434.7
39434.7
39434.6
39434.5
39434.4
39434.4
39434.3
39434.2
39434.1
39434.1
39434
39433.9
39433.8
39433.8
39433.7
39433.6
39433.5
39433.5
39433.4
39433.3
39433.3
39433.2
39433.1
39433.1
39433
39432.9
39432.9
39432.8
39432.8
39432.7
39432.7
39432.6
39432.6
39432.6
39432.5
39432.5
39432.5
39432.4
39432.4
39432.4
39432.4
39432.3
39432.3
39432.3
39432.3
39432.3
39432.3
39432.3
39432.3
39432.3
39432.3
39432.3
39432.3
39432.3
39432.3
39432.3
39432.4
39432.4
39432.4
39432.4
39432.4
39432.5
39432.5
39432.5
39432.6
39432.6
39432.6
39432.7
39432.7
39432.7
39432.8
39432.8
39432.8
39432.9
39432.9
39433
39433
39433
39433.1
39433.1
39433.2
39433.2
39433.2
39433.3
39433.3
39433.4
39433.4
39433.5
39433.5
39433.5
39433.6
39433.6
39433.6
39433.7
39433.7
39433.7
39433.8
39433.8
39433.8
39433.9
39433.9
39433.9
39434
39434
39434
39434
39434
39434.1
39434.1
39434.1
39434.1
39434.1
39434.1
39434.1
39434.2
39434.2
39434.2
39434.2
39434.2
40250.9
40249.6
40247
40243.2
40238.1
40231.8
40224.4
40215.8
40206.1
40195.4
40183.8
40171.2
40157.8
40143.6
40128.7
40113.2
40097.2
40080.7
40063.8
40046.6
40029.2
40011.6
39994
39976.3
39958.7
39941.2
39923.8
39906.7
39889.8
39873.2
39857
39841.2
39825.7
39810.7
39796.2
39782.1
39768.4
39755.3
39742.6
39730.5
39718.8
39707.6
39696.8
39686.5
39676.7
39667.3
39658.3
39649.8
39641.6
39633.8
39626.3
39619.2
39612.5
39606
39599.8
39594
39588.3
39583
39577.8
39572.9
39568.2
39563.7
39559.4
39555.2
39551.3
39547.4
39543.7
39540.2
39536.7
39533.4
39530.2
39527.1
39524.1
39521.2
39518.4
39515.7
39513
39510.4
39507.9
39505.5
39503.1
39500.7
39498.5
39496.3
39494.1
39492
39489.9
39487.9
39485.9
39483.9
39482
39480.2
39478.3
39476.5
39474.8
39473.1
39471.4
39469.7
39468.1
39466.5
39464.9
39463.4
39461.9
39460.4
39458.9
39457.5
39456.1
39454.7
39453.4
39452
39450.7
39449.4
39448.2
39446.9
39445.7
39444.5
39443.3
39442.2
39441
39439.9
39438.8
39437.7
39436.7
39435.6
39434.6
39433.6
39432.6
39431.6
39430.7
39429.7
39428.8
39427.9
39427
39426.1
39425.3
39424.4
39423.6
39422.8
39422
39421.2
39420.4
39419.7
39418.9
39418.2
39417.5
39416.8
39416.1
39415.4
39414.7
39414.1
39413.5
39412.8
39412.2
39411.6
39411
39410.4
39409.9
39409.3
39408.8
39408.2
39407.7
39407.2
39406.7
39406.2
39405.8
39405.3
39404.9
39404.4
39404
39403.6
39403.2
39402.8
39402.4
39402
39401.7
39401.3
39401
39400.6
39400.3
39400
39399.7
39399.4
39399.2
39398.9
39398.6
39398.4
39398.2
39397.9
39397.7
39397.5
39397.3
39397.1
39397
39396.8
39396.6
39396.5
39396.4
39396.2
39396.1
39396
39395.9
39395.8
39395.7
39395.7
39395.6
39395.5
39395.5
39395.5
39395.4
39395.4
39395.4
39395.4
39395.4
39395.4
39395.4
39395.5
39395.5
39395.5
39395.6
39395.6
39395.7
39395.8
39395.8
39395.9
39396
39396.1
39396.2
39396.3
39396.4
39396.5
39396.6
39396.8
39396.9
39397
39397.2
39397.3
39397.5
39397.6
39397.8
39397.9
39398.1
39398.2
39398.4
39398.6
39398.8
39398.9
39399.1
39399.3
39399.5
39399.7
39399.9
39400.1
39400.3
39400.5
39400.7
39400.9
39401.1
39401.3
39401.5
39401.7
39401.9
39402.1
39402.3
39402.5
39402.8
39403
39403.2
39403.4
39403.6
39403.9
39404.1
39404.3
39404.5
39404.7
39405
39405.2
39405.4
39405.7
39405.9
39406.1
39406.4
39406.6
39406.8
39407.1
39407.3
39407.5
39407.8
39408
39408.3
39408.5
39408.7
39409
39409.2
39409.5
39409.7
39410
39410.2
39410.5
39410.7
39411
39411.2
39411.5
39411.7
39412
39412.2
39412.5
39412.7
39413
39413.2
39413.5
39413.7
39414
39414.2
39414.5
39414.7
39415
39415.2
39415.5
39415.7
39416
39416.2
39416.4
39416.7
39416.9
39417.1
39417.4
39417.6
39417.8
39418
39418.3
39418.5
39418.7
39418.9
39419.1
39419.3
39419.5
39419.7
39419.9
39420
39420.2
39420.4
39420.6
39420.7
39420.9
39421
39421.2
39421.3
39421.4
39421.6
39421.7
39421.8
39421.9
39422
39422.1
39422.2
39422.3
39422.4
39422.5
39422.6
39422.6
39422.7
39422.7
39422.8
39422.8
39422.9
39422.9
39422.9
39422.9
39423
39423
39423
39423
39423
39423
39422.9
39422.9
39422.9
39422.9
39422.8
39422.8
39422.8
39422.7
39422.7
39422.6
39422.6
39422.5
39422.5
39422.4
39422.4
39422.3
39422.2
39422.2
39422.1
39422
39421.9
39421.9
39421.8
39421.7
39421.6
39421.6
39421.5
39421.4
39421.3
39421.3
39421.2
39421.1
39421
39421
39420.9
39420.8
39420.8
39420.7
39420.6
39420.5
39420.5
39420.4
39420.4
39420.3
39420.2
39420.2
39420.1
39420.1
39420
39420
39419.9
39419.9
39419.9
39419.8
39419.8
39419.8
39419.7
39419.7
39419.7
39419.7
39419.6
39419.6
39419.6
39419.6
39419.6
39419.6
39419.6
39419.6
39419.6
39419.6
39419.6
39419.6
39419.6
39419.6
39419.6
39419.7
39419.7
39419.7
39419.7
39419.7
39419.8
39419.8
39419.8
39419.9
39419.9
39419.9
39419.9
39420
39420
39420.1
39420.1
39420.1
39420.2
39420.2
39420.3
39420.3
39420.3
39420.4
39420.4
39420.5
39420.5
39420.5
39420.6
39420.6
39420.7
39420.7
39420.7
39420.8
39420.8
39420.9
39420.9
39420.9
39421
39421
39421
39421.1
39421.1
39421.1
39421.2
39421.2
39421.2
39421.2
39421.3
39421.3
39421.3
39421.3
39421.3
39421.4
39421.4
39421.4
39421.4
39421.4
39421.4
39421.4
39421.4
39421.4
39421.4
39421.5
40235.3
40234
40231.5
40227.6
40222.5
40216.2
40208.7
40200
40190.3
40179.5
40167.8
40155.1
40141.6
40127.3
40112.3
40096.7
40080.6
40063.9
40047
40029.6
40012.1
39994.4
39976.7
39958.9
39941.1
39923.5
39906.1
39888.8
39871.9
39855.2
39839
39823
39807.6
39792.5
39777.9
39763.8
39750.1
39737
39724.3
39712.2
39700.5
39689.3
39678.6
39668.3
39658.5
39649.1
39640.2
39631.7
39623.5
39615.8
39608.4
39601.3
39594.6
39588.2
39582.1
39576.3
39570.7
39565.4
39560.3
39555.5
39550.8
39546.4
39542.1
39538
39534.1
39530.3
39526.6
39523.1
39519.7
39516.5
39513.3
39510.3
39507.3
39504.4
39501.6
39498.9
39496.3
39493.8
39491.3
39488.9
39486.5
39484.2
39482
39479.8
39477.6
39475.5
39473.5
39471.5
39469.5
39467.6
39465.7
39463.8
39462
39460.3
39458.5
39456.8
39455.1
39453.5
39451.9
39450.3
39448.7
39447.2
39445.7
39444.2
39442.8
39441.4
39440
39438.6
39437.3
39435.9
39434.6
39433.4
39432.1
39430.9
39429.7
39428.5
39427.3
39426.1
39425
39423.9
39422.8
39421.7
39420.7
39419.6
39418.6
39417.6
39416.6
39415.7
39414.7
39413.8
39412.9
39412
39411.1
39410.2
39409.3
39408.5
39407.7
39406.9
39406.1
39405.3
39404.5
39403.8
39403
39402.3
39401.6
39400.9
39400.2
39399.5
39398.8
39398.2
39397.5
39396.9
39396.3
39395.7
39395.1
39394.5
39394
39393.4
39392.9
39392.4
39391.8
39391.3
39390.8
39390.4
39389.9
39389.4
39389
39388.5
39388.1
39387.7
39387.3
39386.9
39386.5
39386.1
39385.8
39385.4
39385.1
39384.8
39384.4
39384.1
39383.8
39383.6
39383.3
39383
39382.8
39382.5
39382.3
39382.1
39381.8
39381.6
39381.4
39381.3
39381.1
39380.9
39380.8
39380.6
39380.5
39380.4
39380.2
39380.1
39380
39380
39379.9
39379.8
39379.7
39379.7
39379.6
39379.6
39379.6
39379.6
39379.5
39379.5
39379.5
39379.5
39379.6
39379.6
39379.6
39379.7
39379.7
39379.8
39379.8
39379.9
39380
39380.1
39380.1
39380.2
39380.3
39380.4
39380.5
39380.7
39380.8
39380.9
39381
39381.2
39381.3
39381.4
39381.6
39381.7
39381.9
39382.1
39382.2
39382.4
39382.6
39382.7
39382.9
39383.1
39383.3
39383.5
39383.6
39383.8
39384
39384.2
39384.4
39384.6
39384.8
39385
39385.2
39385.4
39385.6
39385.8
39386.1
39386.3
39386.5
39386.7
39386.9
39387.1
39387.3
39387.6
39387.8
39388
39388.2
39388.4
39388.7
39388.9
39389.1
39389.4
39389.6
39389.8
39390
39390.3
39390.5
39390.7
39391
39391.2
39391.5
39391.7
39391.9
39392.2
39392.4
39392.7
39392.9
39393.1
39393.4
39393.6
39393.9
39394.1
39394.4
39394.6
39394.9
39395.1
39395.4
39395.6
39395.9
39396.1
39396.4
39396.6
39396.9
39397.1
39397.4
39397.6
39397.9
39398.1
39398.4
39398.6
39398.9
39399.1
39399.4
39399.6
39399.9
39400.1
39400.4
39400.6
39400.8
39401.1
39401.3
39401.5
39401.8
39402
39402.2
39402.4
39402.6
39402.8
39403
39403.2
39403.4
39403.6
39403.8
39404
39404.2
39404.4
39404.5
39404.7
39404.9
39405
39405.2
39405.3
39405.5
39405.6
39405.7
39405.9
39406
39406.1
39406.2
39406.3
39406.4
39406.5
39406.6
39406.6
39406.7
39406.8
39406.8
39406.9
39406.9
39407
39407
39407
39407.1
39407.1
39407.1
39407.1
39407.1
39407.1
39407.1
39407.1
39407.1
39407.1
39407.1
39407
39407
39407
39406.9
39406.9
39406.8
39406.8
39406.7
39406.7
39406.6
39406.6
39406.5
39406.5
39406.4
39406.3
39406.3
39406.2
39406.1
39406
39406
39405.9
39405.8
39405.7
39405.7
39405.6
39405.5
39405.4
39405.4
39405.3
39405.2
39405.1
39405.1
39405
39404.9
39404.9
39404.8
39404.7
39404.7
39404.6
39404.5
39404.5
39404.4
39404.4
39404.3
39404.3
39404.2
39404.2
39404.1
39404.1
39404
39404
39404
39403.9
39403.9
39403.9
39403.9
39403.8
39403.8
39403.8
39403.8
39403.8
39403.8
39403.8
39403.8
39403.8
39403.8
39403.8
39403.8
39403.8
39403.8
39403.8
39403.8
39403.8
39403.8
39403.9
39403.9
39403.9
39403.9
39404
39404
39404
39404.1
39404.1
39404.1
39404.2
39404.2
39404.2
39404.3
39404.3
39404.3
39404.4
39404.4
39404.5
39404.5
39404.5
39404.6
39404.6
39404.7
39404.7
39404.7
39404.8
39404.8
39404.9
39404.9
39404.9
39405
39405
39405.1
39405.1
39405.1
39405.2
39405.2
39405.2
39405.3
39405.3
39405.3
39405.3
39405.4
39405.4
39405.4
39405.4
39405.5
39405.5
39405.5
39405.5
39405.5
39405.5
39405.6
39405.6
39405.6
39405.6
39405.6
39405.6
39405.6
39405.6
40216.7
40215.4
40212.8
40208.9
40203.7
40197.4
40189.8
40181.1
40171.3
40160.4
40148.5
40135.8
40122.1
40107.7
40092.6
40076.9
40060.6
40043.9
40026.7
40009.3
39991.6
39973.8
39955.9
39937.9
39920.1
39902.3
39884.8
39867.4
39850.4
39833.7
39817.3
39801.3
39785.7
39770.6
39756
39741.8
39728.2
39715
39702.3
39690.2
39678.5
39667.3
39656.6
39646.4
39636.6
39627.3
39618.4
39610
39601.9
39594.2
39586.8
39579.9
39573.2
39566.9
39560.8
39555.1
39549.6
39544.3
39539.3
39534.5
39529.9
39525.6
39521.3
39517.3
39513.4
39509.7
39506.1
39502.7
39499.3
39496.1
39493
39490
39487.1
39484.3
39481.6
39478.9
39476.3
39473.8
39471.4
39469
39466.6
39464.4
39462.2
39460
39457.9
39455.8
39453.8
39451.8
39449.9
39448
39446.1
39444.3
39442.5
39440.7
39439
39437.3
39435.7
39434.1
39432.5
39430.9
39429.4
39427.8
39426.4
39424.9
39423.5
39422.1
39420.7
39419.3
39418
39416.7
39415.4
39414.1
39412.9
39411.6
39410.4
39409.2
39408.1
39406.9
39405.8
39404.7
39403.6
39402.6
39401.5
39400.5
39399.5
39398.5
39397.5
39396.5
39395.6
39394.6
39393.7
39392.8
39392
39391.1
39390.2
39389.4
39388.6
39387.8
39387
39386.2
39385.4
39384.7
39383.9
39383.2
39382.5
39381.8
39381.1
39380.4
39379.8
39379.1
39378.5
39377.9
39377.3
39376.7
39376.1
39375.5
39374.9
39374.4
39373.8
39373.3
39372.8
39372.3
39371.8
39371.3
39370.8
39370.4
39369.9
39369.5
39369.1
39368.7
39368.3
39367.9
39367.5
39367.1
39366.8
39366.4
39366.1
39365.7
39365.4
39365.1
39364.8
39364.5
39364.3
39364
39363.7
39363.5
39363.3
39363
39362.8
39362.6
39362.4
39362.3
39362.1
39361.9
39361.8
39361.6
39361.5
39361.4
39361.2
39361.1
39361
39360.9
39360.9
39360.8
39360.7
39360.7
39360.6
39360.6
39360.6
39360.5
39360.5
39360.5
39360.5
39360.5
39360.6
39360.6
39360.6
39360.7
39360.7
39360.8
39360.8
39360.9
39361
39361.1
39361.1
39361.2
39361.3
39361.4
39361.5
39361.7
39361.8
39361.9
39362
39362.2
39362.3
39362.5
39362.6
39362.8
39362.9
39363.1
39363.2
39363.4
39363.6
39363.7
39363.9
39364.1
39364.3
39364.5
39364.7
39364.8
39365
39365.2
39365.4
39365.6
39365.8
39366
39366.2
39366.4
39366.6
39366.9
39367.1
39367.3
39367.5
39367.7
39367.9
39368.1
39368.4
39368.6
39368.8
39369
39369.2
39369.5
39369.7
39369.9
39370.1
39370.4
39370.6
39370.8
39371.1
39371.3
39371.5
39371.8
39372
39372.2
39372.5
39372.7
39372.9
39373.2
39373.4
39373.7
39373.9
39374.2
39374.4
39374.6
39374.9
39375.1
39375.4
39375.6
39375.9
39376.1
39376.4
39376.6
39376.9
39377.1
39377.4
39377.6
39377.9
39378.1
39378.4
39378.7
39378.9
39379.2
39379.4
39379.7
39379.9
39380.2
39380.4
39380.6
39380.9
39381.1
39381.4
39381.6
39381.8
39382.1
39382.3
39382.5
39382.8
39383
39383.2
39383.4
39383.6
39383.9
39384.1
39384.3
39384.5
39384.7
39384.8
39385
39385.2
39385.4
39385.6
39385.7
39385.9
39386
39386.2
39386.3
39386.5
39386.6
39386.7
39386.9
39387
39387.1
39387.2
39387.3
39387.4
39387.5
39387.6
39387.7
39387.7
39387.8
39387.8
39387.9
39388
39388
39388
39388.1
39388.1
39388.1
39388.1
39388.1
39388.1
39388.1
39388.1
39388.1
39388.1
39388.1
39388.1
39388.1
39388
39388
39388
39387.9
39387.9
39387.8
39387.8
39387.7
39387.7
39387.6
39387.5
39387.5
39387.4
39387.3
39387.3
39387.2
39387.1
39387.1
39387
39386.9
39386.8
39386.8
39386.7
39386.6
39386.5
39386.5
39386.4
39386.3
39386.2
39386.2
39386.1
39386
39386
39385.9
39385.8
39385.7
39385.7
39385.6
39385.6
39385.5
39385.4
39385.4
39385.3
39385.3
39385.2
39385.2
39385.1
39385.1
39385.1
39385
39385
39385
39384.9
39384.9
39384.9
39384.9
39384.8
39384.8
39384.8
39384.8
39384.8
39384.8
39384.8
39384.8
39384.8
39384.8
39384.8
39384.8
39384.8
39384.8
39384.8
39384.9
39384.9
39384.9
39384.9
39384.9
39385
39385
39385
39385.1
39385.1
39385.1
39385.1
39385.2
39385.2
39385.3
39385.3
39385.3
39385.4
39385.4
39385.4
39385.5
39385.5
39385.6
39385.6
39385.6
39385.7
39385.7
39385.8
39385.8
39385.8
39385.9
39385.9
39386
39386
39386
39386.1
39386.1
39386.1
39386.2
39386.2
39386.2
39386.3
39386.3
39386.3
39386.4
39386.4
39386.4
39386.4
39386.5
39386.5
39386.5
39386.5
39386.5
39386.6
39386.6
39386.6
39386.6
39386.6
39386.6
39386.6
39386.6
39386.6
39386.6
40194.9
40193.5
40190.9
40187
40181.8
40175.4
40167.7
40158.9
40149
40138
40126.1
40113.2
40099.4
40084.9
40069.6
40053.7
40037.3
40020.4
40003.1
39985.5
39967.7
39949.7
39931.6
39913.5
39895.5
39877.6
39859.9
39842.5
39825.3
39808.5
39792
39775.9
39760.3
39745.1
39730.5
39716.3
39702.6
39689.4
39676.7
39664.6
39652.9
39641.7
39631.1
39620.9
39611.2
39601.9
39593.1
39584.7
39576.7
39569
39561.8
39554.9
39548.3
39542
39536.1
39530.4
39525
39519.8
39514.9
39510.2
39505.7
39501.3
39497.2
39493.3
39489.4
39485.8
39482.3
39478.9
39475.6
39472.5
39469.4
39466.5
39463.6
39460.9
39458.2
39455.6
39453
39450.6
39448.2
39445.8
39443.5
39441.3
39439.1
39437
39434.9
39432.9
39430.9
39429
39427.1
39425.2
39423.4
39421.6
39419.8
39418.1
39416.4
39414.7
39413.1
39411.5
39409.9
39408.3
39406.8
39405.3
39403.8
39402.4
39401
39399.6
39398.2
39396.9
39395.5
39394.2
39393
39391.7
39390.5
39389.3
39388.1
39386.9
39385.7
39384.6
39383.5
39382.4
39381.3
39380.3
39379.2
39378.2
39377.2
39376.2
39375.2
39374.3
39373.3
39372.4
39371.5
39370.6
39369.7
39368.9
39368
39367.2
39366.4
39365.6
39364.8
39364
39363.2
39362.5
39361.7
39361