/*--------------------------------*- C++ -*----------------------------------*\
| =========                 |                                                 |
| \\      /  F ield         | OpenFOAM: The Open Source CFD Toolbox           |
|  \\    /   O peration     | Version:  v2012                                 |
|   \\  /    A nd           | Website:  www.openfoam.com                      |
|    \\/     M anipulation  |                                                 |
\*---------------------------------------------------------------------------*/
FoamFile
{
    version     2.0;
    format      ascii;
    class       surfaceScalarField;
    location    "150";
    object      phi;
}
// * * * * * * * * * * * * * * * * * * * * * * * * * * * * * * * * * * * * * //

dimensions      [1 0 -1 0 0 0 0];
oriented        oriented;


internalField   nonuniform List<scalar> 
130432
(
48.4093
-48.8037
96.8611
-48.5681
145.09
-48.3441
192.943
-47.9667
240.33
-47.4998
287.132
-46.911
333.246
-46.22
378.562
-45.4184
422.979
-44.516
466.397
-43.5123
508.722
-42.415
549.863
-41.2261
589.738
-39.9536
628.265
-38.6007
665.373
-37.1756
700.994
-35.6828
735.07
-34.1307
767.546
-32.5245
798.376
-30.8728
827.522
-29.1815
854.952
-27.4591
880.642
-25.7119
904.573
-23.948
926.738
-22.174
947.131
-20.3973
965.758
-18.6245
982.629
-16.8624
997.76
-15.117
1011.17
-13.3947
1022.9
-11.7007
1032.97
-10.0406
1041.42
-8.41905
1048.3
-6.84051
1053.65
-5.30888
1057.52
-3.82772
1059.97
-2.4
1061.05
-1.02834
1060.82
0.285209
1059.34
1.53893
1056.67
2.73163
1052.86
3.86245
1047.99
4.93098
1042.12
5.93711
1035.3
6.88112
1027.6
7.76354
1019.08
8.58523
1009.8
9.34724
999.817
10.0509
989.185
10.6976
977.961
11.2892
966.199
11.8272
953.95
12.3137
941.263
12.7506
928.187
13.1399
914.766
13.4838
901.043
13.7843
887.061
14.0437
872.857
14.2639
858.469
14.4473
843.932
14.5957
829.278
14.7113
814.538
14.796
799.742
14.8519
784.915
14.8809
770.084
14.8846
755.272
14.865
740.5
14.8237
725.788
14.7624
711.156
14.6826
696.619
14.5858
682.194
14.4734
667.895
14.3468
653.734
14.2072
639.724
14.0559
625.875
13.8941
612.197
13.7228
598.698
13.543
585.386
13.3557
572.266
13.1619
559.346
12.9623
546.63
12.7577
534.123
12.549
521.827
12.3368
509.745
12.1217
497.881
11.9044
486.235
11.6855
474.809
11.4654
463.603
11.2446
452.618
11.0236
441.854
10.8027
431.309
10.5825
420.984
10.3631
410.877
10.145
400.986
9.92839
391.31
9.71355
381.846
9.50072
372.593
9.2901
363.548
9.08189
354.709
8.87626
346.072
8.67336
337.635
8.47332
329.396
8.27625
321.35
8.08225
313.495
7.8914
305.828
7.70378
298.345
7.51945
291.043
7.33845
283.919
7.16081
276.969
6.98656
270.19
6.81573
263.578
6.64831
257.13
6.48431
250.843
6.32372
244.713
6.16654
238.737
6.01273
232.911
5.86229
227.233
5.71517
221.699
5.57136
216.305
5.43081
211.048
5.29349
205.926
5.15936
200.934
5.02836
196.071
4.90046
191.332
4.77561
186.715
4.65375
182.218
4.53484
177.836
4.41882
173.567
4.30565
169.409
4.19526
165.359
4.08761
161.413
3.98263
157.57
3.88028
153.826
3.7805
150.18
3.68324
146.628
3.58844
143.169
3.49604
139.8
3.406
136.518
3.31826
133.322
3.23277
130.209
3.14947
127.177
3.06832
124.223
2.98926
121.347
2.91224
118.545
2.83722
115.816
2.76414
113.159
2.69297
110.57
2.62364
108.048
2.55612
105.592
2.49036
103.2
2.42632
100.87
2.36395
98.6
2.30321
96.3889
2.24406
94.235
2.18646
92.1369
2.13037
90.0929
2.07575
88.1017
2.02257
86.1618
1.97078
84.2719
1.92035
82.4306
1.87124
80.6366
1.82343
78.8886
1.77687
77.1854
1.73154
75.5258
1.6874
73.9086
1.64442
72.3327
1.60257
70.7969
1.56182
69.3001
1.52215
67.8414
1.48352
66.4196
1.4459
65.0338
1.40928
63.683
1.37362
62.3662
1.3389
61.0825
1.30509
59.831
1.27218
58.6109
1.24013
57.4212
1.20892
56.2612
1.17854
55.13
1.14896
54.0268
1.12015
52.951
1.09211
51.9017
1.0648
50.8782
1.03822
49.8799
1.01233
48.9059
0.987127
47.9557
0.962588
47.0287
0.938695
46.1241
0.915433
45.2414
0.892784
44.3799
0.870732
43.5392
0.849262
42.7186
0.828358
41.9175
0.808006
41.1355
0.788191
40.3721
0.768899
39.6266
0.750116
38.8987
0.731829
38.1879
0.714025
37.4936
0.696691
36.8155
0.679815
36.1531
0.663385
35.506
0.64739
34.8737
0.631817
34.2559
0.616656
33.6522
0.601895
33.0622
0.587526
32.4856
0.573536
31.9219
0.559916
31.3708
0.546657
30.8321
0.533749
30.3053
0.521182
29.7902
0.508948
29.2864
0.497038
28.7936
0.485444
28.3116
0.474156
27.8401
0.463167
27.3788
0.452469
26.9274
0.442054
26.4857
0.431915
26.0535
0.422044
25.6304
0.412434
25.2162
0.403079
24.8108
0.393971
24.4139
0.385103
24.0253
0.37647
23.6447
0.368065
23.272
0.359881
22.907
0.351914
22.5495
0.344156
22.1993
0.336602
21.8562
0.329247
21.5201
0.322085
21.1907
0.315112
20.8679
0.308321
20.5516
0.301707
20.2416
0.295266
19.9377
0.288994
19.6398
0.282884
19.3478
0.276934
19.0615
0.271137
18.7807
0.265491
18.5054
0.25999
18.2354
0.254631
17.9706
0.249409
17.7109
0.244321
17.4561
0.239363
17.2062
0.234531
16.961
0.229821
16.7204
0.22523
16.4842
0.220754
16.2525
0.21639
16.0251
0.212135
15.8018
0.207986
15.5827
0.203938
15.3675
0.199991
15.1563
0.196139
14.9488
0.192381
14.7451
0.188713
14.545
0.185133
14.3484
0.181639
14.1552
0.178227
13.9655
0.174895
13.779
0.17164
13.5957
0.168461
13.4155
0.165354
13.2384
0.162318
13.0642
0.159351
12.893
0.156449
12.7245
0.153611
12.5588
0.150835
12.3958
0.14812
12.2353
0.145462
12.0774
0.14286
11.9219
0.140313
11.7689
0.137818
11.6181
0.135374
11.4696
0.132979
11.3234
0.130632
11.1793
0.12833
11.0372
0.126073
10.8972
0.123859
10.7591
0.121686
10.623
0.119553
10.4887
0.117459
10.3562
0.115402
10.2254
0.113382
10.0964
0.111396
9.96903
0.109444
9.84325
0.107524
9.71904
0.105636
9.59635
0.103778
9.47514
0.101949
9.35537
0.100148
9.23699
0.0983752
9.11998
0.0966284
9.0043
0.0949069
8.88991
0.09321
8.77678
0.0915369
8.66489
0.0898866
8.5542
0.0882586
8.44469
0.086652
8.33634
0.0850661
8.22911
0.0835002
8.123
0.0819537
8.01797
0.080426
7.91401
0.0789166
7.81111
0.0774247
7.70925
0.07595
7.60841
0.0744918
7.50859
0.0730498
7.40977
0.0716235
7.31194
0.0702124
7.2151
0.0688162
7.11923
0.0674345
7.02434
0.066067
6.93042
0.0647133
6.83746
0.0633731
6.74547
0.0620462
6.65444
0.0607323
6.56438
0.0594312
6.47527
0.0581426
6.38714
0.0568665
6.29997
0.0556025
6.21377
0.0543507
6.12854
0.0531108
6.0443
0.0518828
5.96103
0.0506666
5.87876
0.049462
5.79747
0.0482691
5.71718
0.0470878
5.6379
0.0459182
5.55962
0.0447601
5.48236
0.0436136
5.40612
0.0424788
5.33091
0.0413556
5.25672
0.0402441
5.18357
0.0391444
5.11146
0.0380566
5.04039
0.0369807
4.97037
0.0359168
4.9014
0.034865
4.83348
0.0338255
4.76662
0.0327984
4.70081
0.0317837
4.63606
0.0307816
4.57236
0.0297922
4.50973
0.0288158
4.44814
0.0278523
4.38761
0.026902
4.32813
0.0259651
4.26969
0.0250415
4.21229
0.0241316
4.15592
0.0232354
4.10059
0.0223532
4.04627
0.021485
3.99296
0.0206309
3.94065
0.0197913
3.88933
0.0189661
3.83899
0.0181555
3.78962
0.0173596
3.74121
0.0165787
3.69373
0.0158127
3.64718
0.0150618
3.60154
0.0143262
3.5568
0.0136058
3.51293
0.0129009
3.46993
0.0122116
3.42776
0.0115378
3.38642
0.0108796
3.34588
0.0102373
3.30613
0.00961066
3.26713
0.00899991
3.22888
0.00840504
3.19135
0.00782609
3.15452
0.00726307
3.11836
0.00671601
3.08286
0.0061849
3.04798
0.00566975
3.01372
0.00517053
2.98004
0.00468724
2.94692
0.00421983
2.91434
0.00376827
2.88227
0.00333251
2.85069
0.00291249
2.81959
0.00250815
2.78892
0.00211942
2.75868
0.0017462
2.72884
0.00138842
2.69938
0.00104597
2.67027
0.000718753
2.64149
0.000406654
2.61303
0.000109554
2.58486
-0.000172669
2.55695
-0.000440149
2.5293
-0.00069302
2.50187
-0.000931425
2.47466
-0.00115551
2.44764
-0.00136543
2.4208
-0.00156135
2.39411
-0.00174341
2.36757
-0.00191179
2.34115
-0.00206666
2.31484
-0.00220819
2.28863
-0.00233655
2.26249
-0.00245192
2.23643
-0.00255449
2.21043
-0.00264442
2.18447
-0.00272192
2.15854
-0.00278715
2.13264
-0.00284032
2.10676
-0.00288161
2.08088
-0.00291121
2.05501
-0.00292931
2.02912
-0.0029361
2.00322
-0.00293178
1.97731
-0.00291653
1.95137
-0.00289055
1.92541
-0.00285403
1.89942
-0.00280716
1.87339
-0.00275015
1.84734
-0.00268317
1.82125
-0.00260642
1.79513
-0.0025201
1.76897
-0.00242438
1.74278
-0.00231948
1.71657
-0.00220558
1.69032
-0.00208287
1.66406
-0.00195155
1.63777
-0.00181181
1.61146
-0.00166385
1.58515
-0.00150785
1.55883
-0.00134402
1.53251
-0.00117255
1.50619
-0.000993635
1.47989
-0.000807474
1.45361
-0.000614265
1.42735
-0.000414209
1.40113
-0.000207506
1.37496
5.63898e-06
1.34883
0.00022502
1.32277
0.00045043
1.29677
0.00068166
1.27085
0.000918498
1.24501
0.00116073
1.21928
0.00140814
1.19364
0.00166051
1.16812
0.00191762
1.14273
0.00217923
1.11747
0.00244513
1.09235
0.00271509
1.06738
0.00298886
1.04257
0.00326621
1.01794
0.0035469
0.993479
0.00383069
0.96921
0.00411732
0.945138
0.00440654
0.921272
0.00469809
0.897618
0.00499171
0.874186
0.00528715
0.850983
0.00558414
0.828016
0.00588242
0.805293
0.00618169
0.78282
0.0064817
0.760603
0.00678216
0.738648
0.0070828
0.716961
0.00738331
0.695547
0.00768343
0.674411
0.00798286
0.653555
0.00828131
0.632986
0.00857848
0.612704
0.00887408
0.592714
0.00916782
0.573018
0.0094594
0.553616
0.00974852
0.534511
0.0100349
0.515703
0.0103182
0.497192
0.0105982
0.478978
0.0108745
0.46106
0.0111468
0.443437
0.011415
0.426105
0.0116786
0.409064
0.0119374
0.392309
0.0121911
0.375837
0.0124394
0.359645
0.0126821
0.343726
0.0129188
0.328077
0.0131493
0.312691
0.0133733
0.297562
0.0135906
0.282684
0.013801
0.268049
0.014004
0.25365
0.0141997
0.239478
0.0143876
0.225526
0.0145676
0.211783
0.0147394
0.198242
0.014903
0.184892
0.0150579
0.171722
0.0152042
0.158724
0.0153414
0.145885
0.0154698
0.133195
0.0155886
0.120642
0.0156985
0.108215
0.0157983
0.095901
0.0158892
0.0836897
0.0159694
0.071567
0.0160411
0.0595219
0.0161013
0.04754
0.0161534
0.0356102
0.0161936
0.0237186
0.0162248
0.0118494
0.0162483
0.0162497
48.3863
-97.3068
96.6975
-96.9952
144.774
-96.5361
192.502
-95.8084
239.767
-94.8758
286.451
-93.7043
332.448
-92.323
377.649
-90.7214
421.951
-88.9167
465.255
-86.9098
507.466
-84.7152
548.493
-82.3376
588.253
-79.7927
626.666
-77.0868
663.66
-74.2369
699.167
-71.2514
733.129
-68.1473
765.491
-64.9352
796.209
-61.632
825.242
-58.2499
852.56
-54.8055
878.137
-51.3119
901.959
-47.785
924.013
-44.2381
944.299
-40.686
962.819
-37.1419
979.585
-33.6195
994.613
-30.1309
1007.93
-26.6884
1019.55
-23.3031
1029.53
-19.9858
1037.89
-16.7457
1044.68
-13.592
1049.94
-10.5324
1053.74
-7.574
1056.11
-4.72267
1057.12
-1.98366
1056.82
0.638924
1055.27
3.14169
1052.54
5.52229
1048.68
7.77901
1043.76
9.91107
1037.85
11.9183
1030.99
13.8012
1023.26
15.561
1014.71
17.1993
1005.4
18.7182
995.4
20.1206
984.755
21.4092
973.522
22.5874
961.756
23.6588
949.507
24.6272
936.826
25.4966
923.758
26.271
910.35
26.9547
896.645
27.5518
882.683
28.0668
868.504
28.5037
854.144
28.8669
839.638
29.1605
825.018
29.3887
810.316
29.5553
795.559
29.6644
780.775
29.7197
765.988
29.7249
751.222
29.6835
736.499
29.599
721.838
29.4745
707.257
29.3132
692.774
29.118
678.404
28.8919
664.161
28.6374
650.058
28.3573
636.106
28.0538
622.316
27.7294
608.698
27.3861
595.259
27.026
582.007
26.651
568.949
26.263
556.09
25.8636
543.435
25.4544
530.988
25.037
518.753
24.6127
506.733
24.1827
494.929
23.7484
483.343
23.3108
471.977
22.871
460.831
22.4299
449.904
21.9884
439.198
21.5474
428.712
21.1075
418.443
20.6695
408.392
20.2339
398.556
19.8015
388.935
19.3726
379.525
18.9477
370.325
18.5273
361.332
18.1118
352.544
17.7014
343.958
17.2965
335.57
16.8973
327.379
16.504
319.381
16.117
311.573
15.7362
303.952
15.3619
296.513
14.9941
289.255
14.6331
282.174
14.2787
275.266
13.9311
268.528
13.5904
261.956
13.2564
255.548
12.9293
249.299
12.609
243.207
12.2955
237.268
11.9888
231.478
11.6887
225.835
11.3953
220.334
11.1085
214.974
10.8283
209.75
10.5544
204.659
10.2869
199.699
10.0257
194.866
9.77066
190.157
9.52169
185.569
9.27871
181.099
9.0416
176.745
8.81026
172.503
8.5846
168.371
8.36449
164.346
8.14984
160.425
7.94053
156.606
7.73646
152.886
7.53751
149.262
7.34358
145.733
7.15456
142.296
6.97034
138.947
6.79081
135.686
6.61587
132.51
6.44542
129.417
6.27934
126.404
6.11754
123.469
5.95991
120.611
5.80636
117.827
5.65678
115.115
5.51109
112.474
5.36917
109.902
5.23096
107.396
5.09634
104.956
4.96523
102.578
4.83754
100.263
4.7132
98.0073
4.5921
95.8102
4.47417
93.6699
4.35934
91.585
4.24751
89.5539
4.13861
87.5753
4.03258
85.6476
3.92932
83.7696
3.82878
81.9399
3.73088
80.1572
3.63555
78.4203
3.54273
76.7278
3.45235
75.0787
3.36434
73.4717
3.27865
71.9057
3.19522
70.3796
3.11398
68.8922
3.03487
67.4427
2.95785
66.0299
2.88286
64.6528
2.80984
63.3104
2.73875
62.0019
2.66952
60.7263
2.60212
59.4827
2.53649
58.2702
2.4726
57.088
2.41038
55.9353
2.3498
54.8112
2.29082
53.715
2.23339
52.6459
2.17748
51.6032
2.12304
50.5861
2.07003
49.594
2.01842
48.6261
1.96817
47.6819
1.91924
46.7606
1.8716
45.8617
1.82522
44.9845
1.78007
44.1285
1.7361
43.293
1.69329
42.4774
1.65161
41.6814
1.61103
40.9043
1.57153
40.1455
1.53306
39.4047
1.49561
38.6813
1.45915
37.9749
1.42365
37.2849
1.38909
36.611
1.35544
35.9527
1.32268
35.3096
1.29079
34.6813
1.25974
34.0673
1.22951
33.4673
1.20008
32.8809
1.17143
32.3078
1.14354
31.7476
1.11638
31.1999
1.08994
30.6645
1.06421
30.1409
1.03915
29.6289
1.01476
29.1282
0.99101
28.6385
0.967892
28.1594
0.945385
27.6908
0.923475
27.2323
0.902145
26.7836
0.881379
26.3446
0.861163
25.915
0.841482
25.4944
0.822322
25.0828
0.803668
24.6798
0.785508
24.2853
0.767828
23.899
0.750614
23.5207
0.733856
23.1503
0.717539
22.7874
0.701653
22.432
0.686185
22.0839
0.671125
21.7428
0.656461
21.4087
0.642182
21.0813
0.628277
20.7604
0.614737
20.4459
0.601552
20.1377
0.58871
19.8356
0.576204
19.5395
0.564024
19.2492
0.55216
18.9645
0.540603
18.6854
0.529346
18.4117
0.518379
18.1433
0.507694
17.88
0.497284
17.6218
0.48714
17.3685
0.477254
17.12
0.46762
16.8762
0.45823
16.6369
0.449077
16.4022
0.440154
16.1718
0.431455
15.9456
0.422972
15.7236
0.414699
15.5057
0.40663
15.2918
0.39876
15.0817
0.391081
14.8754
0.383589
14.6728
0.376277
14.4738
0.36914
14.2783
0.362173
14.0863
0.355371
13.8976
0.348728
13.7121
0.34224
13.5298
0.335901
13.3507
0.329708
13.1745
0.323655
13.0013
0.317738
12.831
0.311953
12.6634
0.306295
12.4986
0.300761
12.3364
0.295346
12.1769
0.290047
12.0198
0.28486
11.8652
0.279781
11.7129
0.274806
11.563
0.269933
11.4153
0.265158
11.2698
0.260477
11.1264
0.255888
10.9851
0.251387
10.8458
0.246971
10.7085
0.242639
10.5731
0.238385
10.4395
0.234209
10.3077
0.230107
10.1776
0.226077
10.0492
0.222117
9.92251
0.218223
9.79738
0.214394
9.67381
0.210628
9.55174
0.206922
9.43114
0.203274
9.31197
0.199682
9.1942
0.196145
9.07777
0.19266
8.96267
0.189226
8.84885
0.185841
8.73629
0.182503
8.62495
0.17921
8.51481
0.175962
8.40584
0.172756
8.29802
0.169592
8.19132
0.166468
8.08573
0.163382
7.98121
0.160334
7.87776
0.157321
7.77536
0.154345
7.67399
0.151402
7.57364
0.148492
7.4743
0.145614
7.37595
0.142768
7.27859
0.139952
7.18221
0.137165
7.08681
0.134408
6.99237
0.131679
6.89889
0.128977
6.80638
0.126303
6.71482
0.123654
6.62422
0.121032
6.53458
0.118436
6.4459
0.115864
6.35818
0.113317
6.27142
0.110795
6.18562
0.108296
6.1008
0.105822
6.01695
0.103371
5.93407
0.100944
5.85218
0.0985406
5.77127
0.0961601
5.69136
0.0938029
5.61245
0.0914688
5.53454
0.0891579
5.45764
0.0868703
5.38175
0.0846058
5.30689
0.0823647
5.23305
0.0801471
5.16023
0.077953
5.08846
0.0757826
5.01772
0.073636
4.94803
0.0715135
4.87938
0.0694153
4.81177
0.0673415
4.74522
0.0652925
4.67972
0.0632683
4.61527
0.0612694
4.55188
0.0592959
4.48953
0.0573482
4.42824
0.0554265
4.36799
0.0535311
4.30878
0.0516623
4.25062
0.0498204
4.19349
0.0480057
4.13739
0.0462185
4.08231
0.044459
4.02825
0.0427276
3.97519
0.0410246
3.92313
0.0393502
3.87205
0.0377047
3.82195
0.0360884
3.77282
0.0345015
3.72463
0.0329443
3.67738
0.0314171
3.63105
0.02992
3.58563
0.0284532
3.5411
0.0270171
3.49745
0.0256118
3.45465
0.0242374
3.41269
0.0228941
3.37154
0.021582
3.3312
0.0203014
3.29164
0.0190523
3.25283
0.0178347
3.21476
0.0166489
3.17741
0.0154947
3.14076
0.0143724
3.10478
0.0132819
3.06945
0.0122231
3.03474
0.0111962
3.00065
0.0102011
2.96713
0.00923771
2.93417
0.00830599
2.90175
0.00740586
2.86984
0.00653723
2.83841
0.00569997
2.80746
0.00489396
2.77695
0.00411906
2.74685
0.00337509
2.71716
0.00266187
2.68784
0.00197923
2.65887
0.00132693
2.63023
0.000704769
2.60191
0.000112504
2.57387
-0.000450114
2.5461
-0.000983344
2.51858
-0.00148746
2.49129
-0.00196274
2.46421
-0.00240949
2.43732
-0.002828
2.41061
-0.00321858
2.38405
-0.00358156
2.35763
-0.00391727
2.33134
-0.00422604
2.30515
-0.00450821
2.27907
-0.00476413
2.25306
-0.00499415
2.22712
-0.00519863
2.20124
-0.00537794
2.1754
-0.00553243
2.1496
-0.00566248
2.12382
-0.00576846
2.09805
-0.00585074
2.0723
-0.0059097
2.04654
-0.00594572
2.02078
-0.00595918
1.995
-0.00595046
1.9692
-0.00591993
1.94338
-0.00586798
1.91754
-0.005795
1.89167
-0.00570136
1.86576
-0.00558746
1.83982
-0.00545366
1.81385
-0.00530035
1.78785
-0.00512791
1.76181
-0.00493672
1.73574
-0.00472717
1.70964
-0.00449964
1.68351
-0.00425451
1.65736
-0.00399217
1.63119
-0.003713
1.605
-0.00341738
1.5788
-0.0031057
1.5526
-0.00277835
1.52639
-0.00243572
1.5002
-0.0020782
1.47401
-0.00170618
1.44784
-0.00132005
1.4217
-0.00092022
1.39559
-0.000507083
1.36953
-8.10462e-05
1.34352
0.00035748
1.31756
0.000808085
1.29168
0.00127035
1.26587
0.00174385
1.24015
0.00222817
1.21452
0.00272287
1.189
0.00322751
1.16359
0.00374164
1.1383
0.00426483
1.11314
0.00479661
1.08813
0.00533653
1.06327
0.00588411
1.03857
0.00643888
1.01403
0.00700036
0.989681
0.00756806
0.965514
0.00814148
0.941542
0.00872011
0.917775
0.00930343
0.89422
0.00989094
0.870886
0.0104821
0.847779
0.0110764
0.824907
0.0116733
0.802277
0.0122722
0.779897
0.0128727
0.757771
0.013474
0.735906
0.0140757
0.714307
0.0146772
0.69298
0.015278
0.671929
0.0158774
0.651158
0.0164748
0.630671
0.0170698
0.61047
0.0176616
0.59056
0.0182497
0.570942
0.0188335
0.551617
0.0194124
0.532588
0.0199858
0.513853
0.0205531
0.495415
0.0211137
0.477272
0.021667
0.459423
0.0222125
0.441867
0.0227495
0.424602
0.0232774
0.407626
0.0237958
0.390934
0.0243039
0.374525
0.0248013
0.358393
0.0252873
0.342534
0.0257615
0.326942
0.0262232
0.311613
0.0266721
0.29654
0.0271073
0.281715
0.0275288
0.267133
0.0279356
0.252786
0.0283276
0.238665
0.028704
0.224762
0.0290648
0.211068
0.029409
0.197574
0.0297368
0.18427
0.0300472
0.171147
0.0303404
0.158193
0.0306154
0.145398
0.0308727
0.132751
0.0311109
0.12024
0.0313311
0.107855
0.0315312
0.0955834
0.0317133
0.0834128
0.0318744
0.0713307
0.0320178
0.0593255
0.0321389
0.0473834
0.032243
0.0354924
0.0323245
0.0236378
0.0323881
0.0118058
0.0324329
0.032449
48.3976
-145.821
96.7135
-145.427
144.794
-144.731
192.521
-143.649
239.784
-142.25
286.465
-140.494
332.455
-138.42
377.646
-136.015
421.935
-133.304
465.22
-130.289
507.408
-126.992
548.407
-123.421
588.134
-119.598
626.507
-115.533
663.455
-111.252
698.909
-106.767
732.812
-102.104
765.108
-97.2792
795.752
-92.3175
824.704
-87.2376
851.935
-82.0643
877.419
-76.8176
901.14
-71.5212
923.088
-66.1954
943.262
-60.8623
961.665
-55.5418
978.309
-50.2544
993.212
-45.0185
1006.4
-39.8525
1017.89
-34.7731
1027.73
-29.7964
1035.96
-24.9365
1042.61
-20.207
1047.74
-15.6195
1051.4
-11.1845
1053.64
-6.91099
1054.51
-2.80675
1054.08
1.12213
1052.41
4.8706
1049.56
8.43519
1045.59
11.8134
1040.56
15.0041
1034.53
18.0072
1027.57
20.8234
1019.75
23.4546
1011.11
25.9034
1001.72
28.1731
991.64
30.2676
980.924
32.1916
969.627
33.9499
957.804
35.5481
945.505
36.9919
932.779
38.2873
919.674
39.4404
906.235
40.4576
892.504
41.3452
878.523
42.1098
864.33
42.7576
849.962
43.2952
835.453
43.7286
820.835
44.0641
806.14
44.3078
791.395
44.4654
776.627
44.5427
761.861
44.5451
747.12
44.4779
732.425
44.3463
717.796
44.1552
703.25
43.9091
688.805
43.6126
674.476
43.2699
660.276
42.8851
646.218
42.462
632.314
42.0042
618.574
41.5152
605.007
40.9981
591.621
40.4562
578.424
39.8922
565.421
39.3088
552.619
38.7086
540.021
38.0939
527.633
37.4671
515.457
36.8301
503.495
36.1848
491.751
35.5332
480.225
34.8768
468.918
34.2172
457.831
33.5558
446.965
32.894
436.318
32.2329
425.89
31.5737
415.68
30.9174
405.687
30.2649
395.909
29.6171
386.345
28.9747
376.991
28.3385
367.847
27.709
358.909
27.0868
350.175
26.4724
341.642
25.8662
333.308
25.2687
325.169
24.6802
317.222
24.1008
309.464
23.531
301.891
22.9709
294.502
22.4206
287.291
21.8804
280.256
21.3502
273.394
20.8302
266.7
20.3204
260.173
19.8209
253.807
19.3316
247.601
18.8525
241.549
18.3836
235.65
17.9248
229.9
17.4761
224.295
17.0373
218.832
16.6084
213.508
16.1892
208.32
15.7797
203.265
15.3797
198.338
14.9891
193.539
14.6077
188.862
14.2354
184.306
13.8721
179.867
13.5175
175.543
13.1716
171.331
12.8342
167.228
12.5051
163.231
12.1842
159.337
11.8713
155.545
11.5661
151.851
11.2687
148.253
10.9788
144.748
10.6962
141.335
10.4207
138.01
10.1523
134.772
9.8908
131.618
9.63597
128.546
9.38768
125.554
9.14579
122.64
8.91013
119.802
8.68057
117.038
8.45696
114.345
8.23915
111.723
8.027
109.168
7.82036
106.68
7.61912
104.257
7.42311
101.897
7.23223
99.5974
7.04634
97.3577
6.8653
95.1761
6.68901
93.0509
6.51733
90.9806
6.35015
88.9639
6.18736
86.9991
6.02884
85.085
5.87448
83.2203
5.72417
81.4034
5.57782
79.6333
5.4353
77.9085
5.29654
76.228
5.16142
74.5904
5.02985
72.9947
4.90175
71.4397
4.77702
69.9243
4.65556
68.4474
4.53731
67.0081
4.42216
65.6051
4.31005
64.2377
4.20089
62.9048
4.0946
61.6054
3.99111
60.3387
3.89034
59.1038
3.79223
57.8998
3.6967
56.7259
3.60368
55.5812
3.51312
54.465
3.42494
53.3764
3.33908
52.3148
3.25548
51.2794
3.17409
50.2694
3.09484
49.2842
3.01768
48.3231
2.94255
47.3854
2.8694
46.4705
2.79818
45.5778
2.72883
44.7067
2.66132
43.8566
2.59558
43.0269
2.53158
42.217
2.46926
41.4265
2.40859
40.6547
2.34952
39.9012
2.29201
39.1655
2.23602
38.4471
2.1815
37.7455
2.12843
37.0603
2.07675
36.391
2.02645
35.7373
1.97747
35.0985
1.92978
34.4745
1.88335
33.8647
1.83816
33.2688
1.79415
32.6865
1.75131
32.1172
1.70961
31.5608
1.66901
31.0169
1.62948
30.4851
1.591
29.965
1.55353
29.4565
1.51706
28.9592
1.48155
28.4727
1.44699
27.9969
1.41334
27.5314
1.38058
27.076
1.34869
26.6303
1.31764
26.1942
1.28741
25.7674
1.25798
25.3497
1.22934
24.9408
1.20145
24.5405
1.17429
24.1486
1.14786
23.7648
1.12212
23.389
1.09707
23.021
1.07267
22.6606
1.04892
22.3075
1.02579
21.9616
1.00328
21.6228
0.981354
21.2908
0.960005
20.9655
0.939218
20.6467
0.918975
20.3343
0.899262
20.0281
0.880064
19.7279
0.861367
19.4336
0.843157
19.1452
0.82542
18.8623
0.808144
18.585
0.791314
18.313
0.774919
18.0463
0.758946
17.7847
0.743384
17.5281
0.728219
17.2764
0.713442
17.0294
0.69904
16.7871
0.685003
16.5494
0.671321
16.3161
0.657982
16.0871
0.644977
15.8623
0.632296
15.6417
0.61993
15.4251
0.607869
15.2125
0.596103
15.0037
0.584625
14.7987
0.573425
14.5973
0.562495
14.3995
0.551827
14.2052
0.541413
14.0143
0.531244
13.8267
0.521314
13.6423
0.511615
13.4611
0.502139
13.283
0.49288
13.1079
0.483832
12.9357
0.474986
12.7663
0.466337
12.5998
0.457879
12.4359
0.449605
12.2747
0.441509
12.116
0.433587
11.9599
0.425831
11.8061
0.418236
11.6547
0.410798
11.5056
0.403511
11.3588
0.39637
11.2141
0.389371
11.0716
0.382508
10.931
0.375776
10.7925
0.369172
10.6559
0.362692
10.5213
0.35633
10.3884
0.350083
10.2573
0.343947
10.128
0.337918
10.0003
0.331993
9.87424
0.326168
9.74978
0.320439
9.62687
0.314803
9.50545
0.309258
9.3855
0.303799
9.26696
0.298424
9.1498
0.29313
9.03399
0.287915
8.91949
0.282774
8.80626
0.277707
8.69429
0.272711
8.58352
0.267782
8.47395
0.26292
8.36554
0.258121
8.25827
0.253383
8.15212
0.248706
8.04706
0.244085
7.94307
0.239521
7.84014
0.235011
7.73826
0.230554
7.63739
0.226147
7.53755
0.22179
7.4387
0.217481
7.34084
0.213218
7.24396
0.209002
7.14806
0.204829
7.05312
0.2007
6.95915
0.196613
6.86613
0.192568
6.77407
0.188562
6.68296
0.184597
6.59281
0.180671
6.5036
0.176782
6.41535
0.172932
6.32805
0.169119
6.24171
0.165342
6.15633
0.161602
6.07192
0.157897
5.98847
0.154228
5.906
0.150595
5.8245
0.146996
5.74398
0.143433
5.66446
0.139905
5.58592
0.136411
5.50839
0.132952
5.43186
0.129529
5.35634
0.12614
5.28183
0.122786
5.20835
0.119468
5.13589
0.116185
5.06446
0.112937
4.99406
0.109726
4.9247
0.106551
4.85639
0.103412
4.78911
0.10031
4.72288
0.0972449
4.6577
0.0942175
4.59357
0.091228
4.53048
0.0882768
4.46844
0.0853642
4.40744
0.0824907
4.34749
0.0796566
4.28858
0.0768625
4.2307
0.0741088
4.17385
0.0713959
4.11803
0.0687242
4.06322
0.0660941
4.00943
0.0635061
3.95663
0.0609606
3.90483
0.0584581
3.85402
0.0559988
3.80417
0.0535833
3.75528
0.0512119
3.70734
0.0488849
3.66033
0.0466028
3.61424
0.0443658
3.56905
0.0421742
3.52475
0.0400284
3.48132
0.0379287
3.43874
0.0358752
3.39699
0.0338683
3.35606
0.0319081
3.31593
0.0299949
3.27657
0.0281287
3.23797
0.0263097
3.20011
0.0245381
3.16295
0.022814
3.12649
0.0211373
3.0907
0.0195081
3.05556
0.0179265
3.02104
0.0163923
2.98712
0.0149057
2.95379
0.0134664
2.92101
0.0120744
2.88876
0.0107296
2.85702
0.00943188
2.82576
0.00818096
2.79498
0.00697669
2.76463
0.00581887
2.7347
0.00470723
2.70516
0.00364151
2.676
0.00262142
2.64719
0.00164665
2.61871
0.000716876
2.59053
-0.000168263
2.56265
-0.00100913
2.53503
-0.00180612
2.50766
-0.00255963
2.48051
-0.00327008
2.45358
-0.00393791
2.42683
-0.00456356
2.40026
-0.0051475
2.37384
-0.00569021
2.34756
-0.00619216
2.32141
-0.00665386
2.29536
-0.0070758
2.26941
-0.00745852
2.24354
-0.00780251
2.21774
-0.00810833
2.19199
-0.00837649
2.16629
-0.00860755
2.14062
-0.00880204
2.11497
-0.00896051
2.08934
-0.00908353
2.06371
-0.00917164
2.03809
-0.0092254
2.01245
-0.00924538
1.98681
-0.00923213
1.96114
-0.00918622
1.93545
-0.00910822
1.90973
-0.00899868
1.88399
-0.00885818
1.85821
-0.00868727
1.8324
-0.00848653
1.80656
-0.00825651
1.78068
-0.00799778
1.75477
-0.0077109
1.72882
-0.00739645
1.70285
-0.00705499
1.67685
-0.00668709
1.65082
-0.00629331
1.62477
-0.00587422
1.59871
-0.0054304
1.57264
-0.00496242
1.54655
-0.00447086
1.52047
-0.00395629
1.4944
-0.00341929
1.46833
-0.00286045
1.44228
-0.00228035
1.41626
-0.0016796
1.39028
-0.00105878
1.36433
-0.000418506
1.33844
0.000240618
1.3126
0.000917975
1.28684
0.00161294
1.26114
0.00232489
1.23554
0.00305317
1.21002
0.00379715
1.18461
0.00455616
1.15932
0.00532955
1.13414
0.00611664
1.1091
0.00691674
1.0842
0.00772916
1.05944
0.0085532
1.03485
0.00938815
1.01042
0.0102333
0.986175
0.0110878
0.962112
0.0119511
0.938244
0.0128223
0.914578
0.0137006
0.891123
0.0145854
0.867887
0.0154757
0.844877
0.0163708
0.822101
0.0172699
0.799566
0.0181721
0.777278
0.0190767
0.755243
0.0199827
0.733467
0.0208893
0.711956
0.0217957
0.690715
0.0227011
0.669748
0.0236044
0.64906
0.0245048
0.628654
0.0254016
0.608533
0.0262936
0.5887
0.0271802
0.569158
0.0280603
0.549907
0.0289331
0.530949
0.0297976
0.512285
0.030653
0.493916
0.0314983
0.475839
0.0323328
0.458056
0.0331553
0.440563
0.0339652
0.42336
0.0347614
0.406443
0.0355432
0.38981
0.0363096
0.373456
0.0370598
0.357379
0.0377929
0.341573
0.0385082
0.326033
0.0392047
0.310754
0.0398818
0.295729
0.0405385
0.280951
0.0411743
0.266415
0.041788
0.252111
0.0423794
0.238033
0.0429474
0.224171
0.0434917
0.210517
0.0440111
0.197062
0.0445056
0.183796
0.0449739
0.170709
0.0454163
0.157791
0.0458312
0.14503
0.0462195
0.132417
0.0465788
0.11994
0.046911
0.107587
0.047213
0.0953464
0.0474876
0.0832068
0.0477307
0.0711554
0.0479466
0.0591805
0.0481295
0.0472691
0.0482855
0.0354092
0.0484078
0.0235855
0.048503
0.0117803
0.0485645
0.0485938
48.5381
-194.475
96.9704
-193.974
145.165
-193.04
193.005
-191.602
240.377
-189.733
287.163
-187.388
333.253
-184.614
378.537
-181.4
422.91
-177.774
466.271
-173.743
508.525
-169.335
549.579
-164.558
589.35
-159.446
627.756
-154.01
664.723
-148.286
700.184
-142.288
734.08
-136.053
766.355
-129.601
796.964
-122.967
825.867
-116.175
853.034
-109.259
878.441
-102.245
902.071
-95.1657
923.916
-88.0479
943.973
-80.9215
962.249
-73.8129
978.755
-66.7497
993.509
-59.7565
1006.54
-52.8581
1017.87
-46.0767
1027.53
-39.4337
1035.58
-32.9484
1042.05
-26.6385
1047
-20.5196
1050.47
-14.606
1052.52
-8.9093
1053.2
-3.43994
1052.59
1.79404
1050.73
6.78599
1047.7
11.5314
1043.54
16.0271
1038.34
20.2716
1032.15
24.2649
1025.03
28.0082
1017.05
31.5041
1008.26
34.7561
998.731
37.7688
988.519
40.5476
977.679
43.0987
966.267
45.4288
954.336
47.5453
941.938
49.456
929.122
51.1688
915.935
52.6921
902.422
54.0345
888.626
55.2044
874.588
56.2105
860.346
57.0614
845.936
57.7656
831.392
58.3315
816.747
58.7674
802.031
59.0812
787.272
59.2808
772.497
59.3737
757.729
59.3674
742.991
59.2689
728.305
59.085
713.69
58.8222
699.163
58.4867
684.741
58.0844
670.438
57.6211
656.269
57.1021
642.246
56.5325
628.38
55.9171
614.68
55.2606
601.156
54.5671
587.816
53.8408
574.667
53.0855
561.714
52.3048
548.963
51.502
536.419
50.6803
524.085
49.8426
511.964
48.9918
500.06
48.1302
488.373
47.2604
476.905
46.3846
465.657
45.5046
454.63
44.6226
443.823
43.7402
433.235
42.8589
422.867
41.9804
412.717
41.1059
402.783
40.2366
393.064
39.3737
383.559
38.5182
374.264
37.671
365.177
36.8328
356.297
36.0045
347.619
35.1867
339.143
34.38
330.864
33.5849
322.779
32.8017
314.886
32.0309
307.181
31.2729
299.661
30.5277
292.322
29.7958
285.162
29.0772
278.177
28.3722
271.363
27.6806
264.718
27.0028
258.237
26.3385
251.918
25.6879
245.756
25.051
239.749
24.4276
233.893
23.8176
228.185
23.2211
222.622
22.6378
217.199
22.0677
211.915
21.5106
206.766
20.9663
201.748
20.4346
196.859
19.9155
192.095
19.4086
187.454
18.9139
182.933
18.431
178.528
17.9599
174.236
17.5002
170.056
17.0519
165.984
16.6145
162.018
16.1881
158.154
15.7723
154.391
15.3668
150.725
14.9716
147.154
14.5864
143.677
14.2109
140.29
13.8449
136.991
13.4883
133.778
13.1408
130.648
12.8023
127.6
12.4724
124.631
12.151
121.74
11.8379
118.923
11.5329
116.18
11.2358
113.509
10.9465
110.907
10.6646
108.372
10.3901
105.903
10.1227
103.499
9.86231
101.157
9.60871
98.8752
9.36174
96.6529
9.12123
94.4881
8.88702
92.3794
8.65894
90.3252
8.43684
88.324
8.22056
86.3745
8.00996
84.4753
7.80489
82.625
7.6052
80.8222
7.41076
79.0658
7.22143
77.3544
7.03707
75.6868
6.85756
74.062
6.68277
72.4786
6.51258
70.9356
6.34686
69.4319
6.18551
67.9665