/*--------------------------------*- C++ -*----------------------------------*\
| =========                 |                                                 |
| \\      /  F ield         | OpenFOAM: The Open Source CFD Toolbox           |
|  \\    /   O peration     | Version:  v2012                                 |
|   \\  /    A nd           | Website:  www.openfoam.com                      |
|    \\/     M anipulation  |                                                 |
\*---------------------------------------------------------------------------*/
FoamFile
{
    version     2.0;
    format      ascii;
    class       volScalarField;
    location    "150";
    object      theta;
}
// * * * * * * * * * * * * * * * * * * * * * * * * * * * * * * * * * * * * * //

dimensions      [0 0 0 1 0 0 0];


internalField   nonuniform List<scalar> 
65536
(
0.291279
0.290272
0.289242
0.287601
0.285484
0.28287
0.279788
0.276247
0.272272
0.267881
0.263104
0.257963
0.252493
0.246719
0.240677
0.234395
0.227909
0.221248
0.214446
0.207532
0.20054
0.193496
0.186429
0.179366
0.172331
0.165347
0.158436
0.151615
0.144904
0.138316
0.131866
0.125565
0.119422
0.113445
0.107643
0.102018
0.0965751
0.0913168
0.0862453
0.0813601
0.0766622
0.0721497
0.0678221
0.0636767
0.059712
0.0559245
0.0523121
0.048871
0.0455985
0.0424905
0.0395441
0.036755
0.0341201
0.031635
0.0292962
0.0270992
0.0250404
0.0231153
0.0213199
0.0196496
0.0181003
0.0166672
0.0153461
0.014132
0.0130206
0.0120069
0.0110865
0.0102545
0.00950624
0.008837
0.00824223
0.00771729
0.00725776
0.00685919
0.00651735
0.00622805
0.00598729
0.00579119
0.00563603
0.00551826
0.00543448
0.00538148
0.00535621
0.0053558
0.00537754
0.0054189
0.00547751
0.00555117
0.00563782
0.00573559
0.0058427
0.00595756
0.00607869
0.00620474
0.00633447
0.00646677
0.00660062
0.00673512
0.00686943
0.00700283
0.00713464
0.0072643
0.00739128
0.00751515
0.00763548
0.00775197
0.00786429
0.00797222
0.00807554
0.00817408
0.00826771
0.00835632
0.00843983
0.00851819
0.00859137
0.00865936
0.00872217
0.00877982
0.00883235
0.00887982
0.00892229
0.00895984
0.00899255
0.00902052
0.00904385
0.00906264
0.00907702
0.00908709
0.00909299
0.00909485
0.00909278
0.00908694
0.00907744
0.00906444
0.00904808
0.00902849
0.00900583
0.00898023
0.00895184
0.0089208
0.00888727
0.0088514
0.00881331
0.00877318
0.00873113
0.00868732
0.00864189
0.00859498
0.00854675
0.00849733
0.00844686
0.00839549
0.00834336
0.00829061
0.00823736
0.00818377
0.00812996
0.00807606
0.00802221
0.00796854
0.00791517
0.00786224
0.00780985
0.00775814
0.00770723
0.00765722
0.00760824
0.0075604
0.00751381
0.00746857
0.0074248
0.00738259
0.00734204
0.00730325
0.00726631
0.00723133
0.00719837
0.00716754
0.0071389
0.00711255
0.00708856
0.007067
0.00704794
0.00703145
0.00701759
0.00700642
0.006998
0.00699239
0.00698963
0.00698977
0.00699286
0.00699893
0.00700803
0.00702018
0.00703541
0.00705377
0.00707525
0.00709989
0.00712771
0.00715871
0.0071929
0.00723029
0.00727089
0.00731468
0.00736168
0.00741186
0.00746522
0.00752175
0.00758142
0.00764422
0.00771012
0.00777909
0.00785111
0.00792614
0.00800414
0.00808509
0.00816892
0.00825561
0.0083451
0.00843735
0.0085323
0.0086299
0.00873009
0.00883281
0.00893801
0.00904563
0.00915559
0.00926784
0.00938231
0.00949893
0.00961763
0.00973835
0.00986101
0.00998555
0.0101119
0.01024
0.0103697
0.010501
0.0106339
0.0107682
0.0109038
0.0110408
0.0111791
0.0113185
0.011459
0.0116006
0.0117432
0.0118867
0.0120311
0.0121763
0.0123223
0.012469
0.0126163
0.0127643
0.0129128
0.0130619
0.0132114
0.0133614
0.0135119
0.0136627
0.0138139
0.0139654
0.0141173
0.0142694
0.0144218
0.0145745
0.0147274
0.0148806
0.015034
0.0151876
0.0153415
0.0154955
0.0156498
0.0158044
0.0159591
0.0161141
0.0162693
0.0164247
0.0165804
0.0167364
0.0168926
0.0170491
0.0172059
0.017363
0.0175203
0.017678
0.0178359
0.0179942
0.0181527
0.0183116
0.0184708
0.0186302
0.01879
0.01895
0.0191103
0.0192709
0.0194317
0.0195927
0.0197539
0.0199153
0.0200768
0.0202384
0.0204001
0.0205618
0.0207235
0.0208851
0.0210466
0.0212079
0.021369
0.0215297
0.0216902
0.0218501
0.0220096
0.0221685
0.0223267
0.0224842
0.0226409
0.0227966
0.0229514
0.0231051
0.0232576
0.0234088
0.0235587
0.0237071
0.0238539
0.0239991
0.0241425
0.0242841
0.0244237
0.0245613
0.0246967
0.0248299
0.0249608
0.0250892
0.0252151
0.0253384
0.0254591
0.0255769
0.0256919
0.0258039
0.0259129
0.0260188
0.0261216
0.0262212
0.0263174
0.0264104
0.0264999
0.026586
0.0266686
0.0267477
0.0268232
0.0268952
0.0269635
0.0270282
0.0270893
0.0271467
0.0272005
0.0272506
0.027297
0.0273398
0.027379
0.0274146
0.0274466
0.0274751
0.0275001
0.0275216
0.0275397
0.0275544
0.0275658
0.027574
0.027579
0.0275808
0.0275796
0.0275755
0.0275684
0.0275586
0.027546
0.0275308
0.027513
0.0274928
0.0274702
0.0274454
0.0274185
0.0273894
0.0273585
0.0273257
0.0272912
0.0272551
0.0272175
0.0271784
0.0271381
0.0270967
0.0270541
0.0270106
0.0269663
0.0269212
0.0268755
0.0268293
0.0267827
0.0267358
0.0266887
0.0266415
0.0265943
0.0265473
0.0265004
0.0264538
0.0264076
0.0263619
0.0263168
0.0262723
0.0262285
0.0261855
0.0261435
0.0261024
0.0260623
0.0260233
0.0259854
0.0259488
0.0259134
0.0258793
0.0258466
0.0258153
0.0257855
0.0257571
0.0257302
0.0257049
0.0256812
0.0256591
0.0256385
0.0256196
0.0256024
0.0255868
0.0255728
0.0255605
0.0255499
0.0255408
0.0255335
0.0255277
0.0255236
0.0255211
0.0255201
0.0255207
0.0255228
0.0255264
0.0255315
0.025538
0.0255459
0.0255552
0.0255658
0.0255777
0.0255909
0.0256052
0.0256207
0.0256373
0.0256549
0.0256736
0.0256932
0.0257137
0.0257351
0.0257573
0.0257802
0.0258039
0.0258281
0.025853
0.0258784
0.0259042
0.0259305
0.0259571
0.0259841
0.0260113
0.0260387
0.0260662
0.0260939
0.0261216
0.0261493
0.0261769
0.0262044
0.0262318
0.0262589
0.0262858
0.0263124
0.0263386
0.0263644
0.0263898
0.0264148
0.0264392
0.026463
0.0264863
0.0265089
0.0265308
0.0265521
0.0265726
0.0265923
0.0266112
0.0266293
0.0266466
0.026663
0.0266784
0.026693
0.0267066
0.0267192
0.0267308
0.0267415
0.0267511
0.0267597
0.0267672
0.0267737
0.0267791
0.0267834
0.0267867
0.0267889
0.0267898
0.290658
0.290096
0.289025
0.287411
0.285345
0.282758
0.279712
0.27619
0.272236
0.267861
0.263099
0.257971
0.252514
0.246751
0.24072
0.234449
0.227972
0.221321
0.214528
0.207625
0.200641
0.193607
0.18655
0.179497
0.172472
0.165499
0.158597
0.151788
0.145087
0.138511
0.132071
0.125782
0.11965
0.113686
0.107894
0.10228
0.0968486
0.0916017
0.0865403
0.081666
0.0769777
0.0724753
0.0681567
0.0640206
0.060064
0.0562848
0.0526795
0.0492454
0.0459787
0.0428764
0.0399344
0.0371495
0.0345174
0.0320346
0.029697
0.0275006
0.0254412
0.0235148
0.021717
0.0200437
0.0184902
0.0170522
0.0157252
0.0145046
0.0133858
0.0123641
0.0114348
0.0105934
0.00983501
0.00915512
0.00854911
0.00801247
0.00754075
0.00712962
0.00677483
0.00647228
0.006218
0.00600814
0.00583905
0.00570719
0.00560923
0.00554197
0.00550243
0.00548773
0.00549522
0.00552239
0.00556691
0.00562658
0.00569939
0.00578346
0.00587706
0.00597859
0.0060866
0.00619973
0.00631679
0.00643664
0.00655829
0.00668082
0.00680342
0.00692536
0.00704598
0.00716469
0.00728099
0.00739442
0.00750459
0.00761115
0.0077138
0.00781231
0.00790645
0.00799605
0.00808097
0.00816111
0.00823637
0.0083067
0.00837208
0.00843247
0.00848789
0.00853835
0.00858389
0.00862457
0.00866043
0.00869155
0.00871801
0.00873991
0.00875733
0.00877038
0.00877917
0.00878382
0.00878444
0.00878116
0.0087741
0.0087634
0.00874919
0.0087316
0.00871077
0.00868684
0.00865995
0.00863025
0.00859786
0.00856294
0.00852564
0.00848608
0.00844442
0.0084008
0.00835537
0.00830826
0.00825963
0.0082096
0.00815833
0.00810596
0.00805262
0.00799845
0.0079436
0.00788819
0.00783237
0.00777626
0.00772
0.00766373
0.00760756
0.00755164
0.00749607
0.007441
0.00738653
0.00733279
0.0072799
0.00722798
0.00717713
0.00712746
0.0070791
0.00703213
0.00698668
0.00694283
0.00690068
0.00686034
0.00682189
0.00678543
0.00675104
0.00671881
0.00668881
0.00666114
0.00663585
0.00661303
0.00659275
0.00657506
0.00656004
0.00654774
0.00653822
0.00653154
0.00652773
0.00652686
0.00652896
0.00653406
0.00654222
0.00655345
0.0065678
0.00658528
0.00660592
0.00662974
0.00665675
0.00668697
0.0067204
0.00675706
0.00679693
0.00684003
0.00688633
0.00693585
0.00698856
0.00704446
0.00710352
0.00716571
0.00723103
0.00729944
0.0073709
0.00744539
0.00752288
0.00760331
0.00768665
0.00777285
0.00786187
0.00795366
0.00804816
0.00814532
0.00824509
0.0083474
0.0084522
0.00855942
0.00866901
0.00878088
0.00889499
0.00901126
0.00912962
0.00925
0.00937234
0.00949656
0.00962259
0.00975037
0.00987981
0.0100109
0.0101434
0.0102775
0.0104129
0.0105496
0.0106876
0.0108268
0.0109671
0.0111085
0.0112508
0.0113941
0.0115383
0.0116833
0.0118291
0.0119755
0.0121227
0.0122705
0.0124188
0.0125677
0.0127171
0.0128669
0.0130172
0.0131679
0.0133189
0.0134703
0.013622
0.013774
0.0139263
0.0140788
0.0142316
0.0143847
0.0145379
0.0146914
0.0148452
0.0149991
0.0151533
0.0153077
0.0154624
0.0156173
0.0157724
0.0159277
0.0160833
0.0162392
0.0163954
0.0165518
0.0167085
0.0168654
0.0170227
0.0171803
0.0173382
0.0174964
0.0176548
0.0178136
0.0179727
0.0181321
0.0182918
0.0184518
0.0186121
0.0187726
0.0189333
0.0190943
0.0192554
0.0194168
0.0195782
0.0197398
0.0199014
0.0200631
0.0202247
0.0203863
0.0205477
0.020709
0.02087
0.0210307
0.0211911
0.021351
0.0215105
0.0216693
0.0218275
0.021985
0.0221416
0.0222973
0.0224521
0.0226057
0.0227582
0.0229094
0.0230592
0.0232076
0.0233544
0.0234995
0.0236429
0.0237845
0.0239241
0.0240616
0.024197
0.0243302
0.024461
0.0245895
0.0247153
0.0248386
0.0249592
0.025077
0.025192
0.025304
0.025413
0.0255189
0.0256217
0.0257212
0.0258175
0.0259104
0.0259999
0.026086
0.0261686
0.0262477
0.0263232
0.0263951
0.0264635
0.0265282
0.0265892
0.0266466
0.0267004
0.0267505
0.0267969
0.0268397
0.0268789
0.0269145
0.0269466
0.026975
0.027
0.0270215
0.0270397
0.0270544
0.0270658
0.027074
0.027079
0.0270809
0.0270797
0.0270756
0.0270685
0.0270587
0.0270461
0.027031
0.0270132
0.026993
0.0269705
0.0269457
0.0269188
0.0268898
0.0268589
0.0268262
0.0267917
0.0267556
0.026718
0.0266791
0.0266388
0.0265974
0.0265549
0.0265114
0.0264671
0.0264221
0.0263764
0.0263303
0.0262837
0.0262368
0.0261898
0.0261426
0.0260955
0.0260484
0.0260016
0.025955
0.0259089
0.0258632
0.0258181
0.0257736
0.0257299
0.025687
0.0256449
0.0256038
0.0255638
0.0255248
0.0254869
0.0254503
0.025415
0.0253809
0.0253482
0.025317
0.0252871
0.0252588
0.0252319
0.0252066
0.0251829
0.0251608
0.0251402
0.0251213
0.0251041
0.0250885
0.0250745
0.0250622
0.0250515
0.0250425
0.0250351
0.0250294
0.0250252
0.0250227
0.0250217
0.0250223
0.0250244
0.025028
0.025033
0.0250395
0.0250474
0.0250567
0.0250673
0.0250791
0.0250923
0.0251066
0.025122
0.0251386
0.0251562
0.0251748
0.0251944
0.0252149
0.0252363
0.0252584
0.0252813
0.0253049
0.0253291
0.0253539
0.0253793
0.0254051
0.0254313
0.0254579
0.0254848
0.025512
0.0255393
0.0255669
0.0255945
0.0256221
0.0256497
0.0256773
0.0257048
0.0257321
0.0257592
0.025786
0.0258125
0.0258387
0.0258645
0.0258898
0.0259147
0.0259391
0.0259629
0.0259861
0.0260086
0.0260305
0.0260517
0.0260721
0.0260918
0.0261107
0.0261288
0.026146
0.0261623
0.0261777
0.0261922
0.0262058
0.0262183
0.0262299
0.0262405
0.0262501
0.0262587
0.0262662
0.0262726
0.026278
0.0262823
0.0262855
0.0262878
0.0262888
0.291053
0.290682
0.289622
0.288046
0.285955
0.283354
0.280275
0.276727
0.272741
0.268335
0.263539
0.258378
0.252885
0.247087
0.24102
0.234712
0.228199
0.221511
0.214682
0.207742
0.200723
0.193654
0.186562
0.179476
0.172418
0.165414
0.158483
0.151646
0.14492
0.138319
0.131858
0.125548
0.119399
0.113419
0.107614
0.101989
0.0965486
0.091295
0.0862292
0.0813525
0.0766639
0.0721632
0.0678482
0.0637173
0.0597677
0.055997
0.0524016
0.0489788
0.0457247
0.0426359
0.0397086
0.036939
0.0343231
0.031857
0.0295366
0.0273578
0.0253163
0.0234079
0.0216282
0.019973
0.0184375
0.0170175
0.0157082
0.014505
0.0134032
0.0123983
0.0114854
0.0106598
0.00991689
0.009252
0.00866051
0.00813791
0.00767973
0.00728165
0.00693942
0.00664893
0.00640624
0.00620749
0.00604905
0.00592739
0.0058392
0.00578129
0.00575068
0.00574453
0.00576021
0.0057952
0.0058472
0.00591403
0.0059937
0.00608433
0.00618421
0.00629177
0.00640556
0.00652424
0.00664662
0.00677159
0.00689816
0.00702543
0.00715259
0.00727891
0.00740376
0.00752656
0.0076468
0.00776403
0.00787788
0.00798799
0.00809408
0.00819591
0.00829327
0.00838598
0.00847393
0.00855699
0.00863509
0.00870817
0.00877621
0.0088392
0.00889713
0.00895003
0.00899794
0.00904091
0.009079
0.00911229
0.00914086
0.00916479
0.0091842
0.00919918
0.00920985
0.00921631
0.0092187
0.00921714
0.00921176
0.00920268
0.00919005
0.00917399
0.00915465
0.00913217
0.00910669
0.00907834
0.00904729
0.00901366
0.0089776
0.00893927
0.00889879
0.00885632
0.008812
0.00876598
0.0087184
0.0086694
0.00861912
0.00856772
0.00851531
0.00846206
0.00840809
0.00835354
0.00829856
0.00824326
0.0081878
0.00813229
0.00807687
0.00802166
0.0079668
0.00791241
0.00785861
0.00780551
0.00775325
0.00770193
0.00765167
0.00760259
0.00755478
0.00750836
0.00746343
0.00742009
0.00737845
0.00733859
0.00730061
0.00726461
0.00723067
0.00719887
0.0071693
0.00714203
0.00711715
0.00709472
0.00707482
0.0070575
0.00704284
0.00703089
0.00702172
0.00701536
0.00701188
0.00701133
0.00701373
0.00701914
0.00702759
0.00703911
0.00705374
0.00707149
0.0070924
0.00711648
0.00714375
0.00717421
0.00720789
0.00724478
0.00728488
0.0073282
0.00737474
0.00742447
0.00747739
0.0075335
0.00759276
0.00765515
0.00772067
0.00778926
0.00786091
0.00793559
0.00801325
0.00809386
0.00817737
0.00826374
0.00835293
0.00844488
0.00853954
0.00863686
0.00873678
0.00883925
0.00894419
0.00905156
0.00916129
0.0092733
0.00938755
0.00950395
0.00962245
0.00974296
0.00986543
0.00998977
0.0101159
0.0102438
0.0103734
0.0105045
0.0106372
0.0107714
0.0109069
0.0110438
0.0111819
0.0113212
0.0114616
0.011603
0.0117455
0.0118889
0.0120332
0.0121783
0.0123241
0.0124707
0.0126179
0.0127658
0.0129143
0.0130632
0.0132127
0.0133626
0.013513
0.0136638
0.0138149
0.0139663
0.0141181
0.0142702
0.0144225
0.0145751
0.014728
0.0148811
0.0150345
0.0151881
0.0153419
0.0154959
0.0156502
0.0158046
0.0159593
0.0161143
0.0162695
0.0164249
0.0165805
0.0167365
0.0168927
0.0170491
0.0172059
0.0173629
0.0175203
0.0176779
0.0178358
0.017994
0.0181526
0.0183114
0.0184706
0.01863
0.0187898
0.0189498
0.0191101
0.0192706
0.0194314
0.0195924
0.0197536
0.0199149
0.0200764
0.020238
0.0203997
0.0205614
0.020723
0.0208846
0.0210461
0.0212074
0.0213685
0.0215292
0.0216896
0.0218496
0.022009
0.0221679
0.0223261
0.0224836
0.0226402
0.022796
0.0229507
0.0231044
0.0232568
0.023408
0.0235579
0.0237063
0.0238531
0.0239982
0.0241417
0.0242832
0.0244228
0.0245604
0.0246958
0.024829
0.0249598
0.0250882
0.0252141
0.0253374
0.025458
0.0255758
0.0256908
0.0258028
0.0259118
0.0260177
0.0261205
0.02622
0.0263163
0.0264092
0.0264987
0.0265848
0.0266674
0.0267465
0.0268221
0.026894
0.0269624
0.0270271
0.0270882
0.0271456
0.0271994
0.0272495
0.027296
0.0273388
0.027378
0.0274136
0.0274457
0.0274742
0.0274992
0.0275208
0.0275389
0.0275537
0.0275652
0.0275734
0.0275784
0.0275804
0.0275792
0.0275752
0.0275682
0.0275584
0.0275459
0.0275308
0.0275131
0.027493
0.0274705
0.0274458
0.0274189
0.02739
0.0273592
0.0273265
0.0272921
0.0272561
0.0272186
0.0271797
0.0271395
0.0270981
0.0270557
0.0270123
0.0269681
0.0269231
0.0268776
0.0268315
0.026785
0.0267382
0.0266912
0.0266441
0.026597
0.0265501
0.0265033
0.0264568
0.0264107
0.0263651
0.0263201
0.0262757
0.026232
0.0261892
0.0261472
0.0261062
0.0260661
0.0260272
0.0259894
0.0259529
0.0259175
0.0258835
0.0258509
0.0258197
0.0257898
0.0257615
0.0257347
0.0257094
0.0256857
0.0256636
0.0256431
0.0256242
0.025607
0.0255914
0.0255774
0.0255651
0.0255544
0.0255454
0.025538
0.0255322
0.0255281
0.0255255
0.0255245
0.025525
0.0255271
0.0255306
0.0255357
0.0255421
0.02555
0.0255592
0.0255697
0.0255815
0.0255946
0.0256088
0.0256242
0.0256407
0.0256582
0.0256768
0.0256963
0.0257167
0.025738
0.0257601
0.0257829
0.0258064
0.0258305
0.0258553
0.0258805
0.0259062
0.0259324
0.0259589
0.0259857
0.0260128
0.0260401
0.0260675
0.026095
0.0261226
0.0261501
0.0261776
0.026205
0.0262322
0.0262592
0.0262859
0.0263124
0.0263385
0.0263642
0.0263895
0.0264143
0.0264386
0.0264623
0.0264854
0.0265079
0.0265297
0.0265509
0.0265712
0.0265909
0.0266097
0.0266277
0.0266449
0.0266611
0.0266765
0.026691
0.0267045
0.026717
0.0267286
0.0267392
0.0267487
0.0267572
0.0267647
0.0267712
0.0267766
0.0267808
0.0267841
0.0267862
0.0267873
0.291806
0.291185
0.290095
0.28849
0.286381
0.283766
0.280671
0.277107
0.273099
0.268669
0.263845
0.258653
0.253126
0.247292
0.241185
0.234835
0.228279
0.221546
0.21467
0.207683
0.200616
0.193498
0.186357
0.179222
0.172116
0.165064
0.158087
0.151204
0.144433
0.13779
0.131287
0.124937
0.118749
0.112733
0.106893
0.101236
0.0957646
0.0904824
0.0853901
0.0804886
0.0757775
0.0712559
0.066922
0.062774
0.0588092
0.0550248
0.0514177
0.0479845
0.0447218
0.0416258
0.0386928
0.0359189
0.0333001
0.0308324
0.0285117
0.0263337
0.0242942
0.0223889
0.0206134
0.0189631
0.0174336
0.0160201
0.0147182
0.013523
0.0124299
0.011434
0.0105306
0.00971489
0.0089822
0.00832776
0.00774696
0.00723517
0.00678794
0.00640083
0.00606962
0.00579011
0.00555835
0.00537044
0.00522273
0.00511166
0.00503388
0.00498621
0.00496563
0.00496931
0.00499457
0.00503893
0.00510004
0.00517575
0.00526403
0.00536303
0.00547103
0.00558644
0.00570783
0.00583387
0.00596336
0.00609519
0.00622838
0.00636204
0.00649536
0.00662762
0.00675819
0.0068865
0.00701203
0.00713437
0.00725311
0.00736794
0.00747856
0.00758475
0.00768629
0.00778303
0.00787484
0.00796161
0.00804328
0.00811979
0.00819111
0.00825725
0.0083182
0.00837401
0.00842471
0.00847036
0.00851102
0.00854677
0.00857771
0.00860391
0.0086255
0.00864257
0.00865523
0.00866362
0.00866786
0.00866807
0.00866438
0.00865693
0.00864586
0.0086313
0.0086134
0.00859229
0.00856813
0.00854106
0.00851121
0.00847875
0.00844381
0.00840655
0.0083671
0.00832561
0.00828224
0.00823712
0.00819041
0.00814224
0.00809276
0.00804212
0.00799045
0.0079379
0.00788461
0.0078307
0.00777634
0.00772164
0.00766674
0.00761177
0.00755688
0.00750217
0.00744779
0.00739386
0.0073405
0.00728783
0.00723597
0.00718505
0.00713516
0.00708643
0.00703897
0.00699288
0.00694827
0.00690524
0.00686388
0.00682431
0.0067866
0.00675086
0.00671717
0.00668561
0.00665627
0.00662923
0.00660456
0.00658234
0.00656263
0.00654551
0.00653104
0.00651927
0.00651027
0.00650408
0.00650077
0.00650036
0.00650292
0.00650848
0.00651707
0.00652874
0.0065435
0.00656138
0.00658242
0.00660663
0.00663401
0.0066646
0.00669839
0.00673539
0.00677561
0.00681904
0.00686568
0.00691552
0.00696855
0.00702475
0.00708411
0.0071466
0.00721221
0.0072809
0.00735265
0.00742741
0.00750516
0.00758586
0.00766946
0.00775592
0.00784519
0.00793723
0.00803197
0.00812938
0.00822938
0.00833193
0.00843695
0.0085444
0.00865421
0.00876631
0.00888063
0.00899711
0.00911568
0.00923627
0.00935881
0.00948324
0.00960947
0.00973744
0.00986708
0.00999831
0.0101311
0.0102653
0.0104009
0.0105378
0.010676
0.0108154
0.0109558
0.0110974
0.0112399
0.0113834
0.0115277
0.0116729
0.0118188
0.0119655
0.0121128
0.0122607
0.0124092
0.0125583
0.0127078
0.0128578
0.0130082
0.013159
0.0133102
0.0134617
0.0136136
0.0137657
0.0139181
0.0140708
0.0142237
0.0143769
0.0145303
0.014684
0.0148378
0.0149919
0.0151462
0.0153008
0.0154555
0.0156105
0.0157657
0.0159212
0.0160769
0.0162329
0.0163892
0.0165457
0.0167025
0.0168596
0.0170169
0.0171746
0.0173326
0.0174908
0.0176494
0.0178083
0.0179675
0.018127
0.0182867
0.0184468
0.0186071
0.0187677
0.0189285
0.0190895
0.0192508
0.0194121
0.0195737
0.0197353
0.019897
0.0200587
0.0202203
0.020382
0.0205434
0.0207048
0.0208658
0.0210266
0.021187
0.021347
0.0215064
0.0216653
0.0218235
0.021981
0.0221377
0.0222934
0.0224482
0.0226018
0.0227543
0.0229055
0.0230554
0.0232037
0.0233506
0.0234957
0.0236391
0.0237807
0.0239203
0.0240578
0.0241932
0.0243264
0.0244573
0.0245857
0.0247116
0.0248348
0.0249554
0.0250733
0.0251882
0.0253002
0.0254092
0.0255152
0.0256179
0.0257175
0.0258137
0.0259067
0.0259962
0.0260823
0.026165
0.0262441
0.0263196
0.0263916
0.02646
0.0265247
0.0265858
0.0266433
0.0266971
0.0267472
0.0267937
0.0268366
0.0268759
0.0269115
0.0269436
0.0269722
0.0269973
0.0270189
0.0270371
0.0270519
0.0270634
0.0270717
0.0270768
0.0270788
0.0270778
0.0270738
0.0270669
0.0270572
0.0270448
0.0270297
0.0270121
0.0269921
0.0269698
0.0269451
0.0269184
0.0268896
0.0268588
0.0268263
0.026792
0.0267561
0.0267187
0.0266799
0.0266398
0.0265986
0.0265563
0.026513
0.0264689
0.0264241
0.0263786
0.0263327
0.0262863
0.0262396
0.0261927
0.0261458
0.0260988
0.026052
0.0260053
0.0259589
0.025913
0.0258675
0.0258225
0.0257782
0.0257347
0.0256919
0.02565
0.0256091
0.0255692
0.0255303
0.0254926
0.0254561
0.0254209
0.0253869
0.0253543
0.0253232
0.0252934
0.0252651
0.0252384
0.0252131
0.0251895
0.0251674
0.0251469
0.025128
0.0251108
0.0250952
0.0250812
0.0250689
0.0250582
0.0250492
0.0250418
0.025036
0.0250318
0.0250292
0.0250281
0.0250286
0.0250306
0.0250341
0.0250391
0.0250455
0.0250532
0.0250624
0.0250728
0.0250845
0.0250975
0.0251117
0.025127
0.0251434
0.0251608
0.0251793
0.0251987
0.025219
0.0252401
0.0252621
0.0252848
0.0253082
0.0253322
0.0253568
0.0253819
0.0254075
0.0254335
0.0254599
0.0254866
0.0255135
0.0255407
0.025568
0.0255953
0.0256228
0.0256502
0.0256775
0.0257048
0.0257319
0.0257588
0.0257854
0.0258117
0.0258377
0.0258633
0.0258885
0.0259131
0.0259373
0.0259609
0.025984
0.0260064
0.0260281
0.0260491
0.0260694
0.026089
0.0261077
0.0261256
0.0261427
0.0261589
0.0261742
0.0261886
0.0262021
0.0262145
0.0262261
0.0262366
0.0262461
0.0262546
0.026262
0.0262684
0.0262738
0.0262781
0.0262813
0.0262834
0.0262844
0.292909
0.292465
0.2914
0.289796
0.287677
0.285037
0.281912
0.278311
0.274262
0.269786
0.264914
0.259669
0.254088
0.248195
0.24203
0.235619
0.229001
0.222205
0.215267
0.208216
0.201086
0.193906
0.186705
0.179511
0.172348
0.165242
0.158213
0.151281
0.144464
0.137779
0.131237
0.124852
0.118633
0.112588
0.106724
0.101046
0.0955579
0.0902616
0.0851587
0.0802498
0.0755343
0.0710112
0.0666787
0.0625345
0.058576
0.0548
0.0512034
0.0477826
0.0445339
0.0414535
0.0385374
0.0357817
0.0331821
0.0307344
0.0284345
0.0262779
0.0242604
0.0223773
0.0206243
0.0189967
0.01749
0.0160992
0.0148198
0.0136469
0.0125758
0.0116015
0.0107193
0.00992427
0.00921169
0.00857676
0.00801481
0.00752121
0.00709146
0.00672113
0.00640596
0.00614176
0.00592455
0.00575046
0.00561583
0.00551711
0.00545097
0.00541424
0.00540392
0.00541719
0.00545142
0.00550412
0.00557298
0.00565588
0.00575081
0.00585595
0.0059696
0.00609021
0.00621635
0.00634674
0.00648019
0.00661562
0.00675208
0.00688868
0.00702465
0.00715929
0.00729198
0.00742216
0.00754935
0.00767313
0.00779314
0.00790905
0.00802059
0.00812755
0.00822972
0.00832697
0.00841916
0.00850622
0.00858806
0.00866466
0.00873599
0.00880206
0.00886288
0.00891849
0.00896894
0.00901428
0.00905459
0.00908995
0.00912045
0.00914619
0.00916727
0.00918382
0.00919594
0.00920376
0.0092074
0.009207
0.0092027
0.00919461
0.0091829
0.00916769
0.00914913
0.00912736
0.00910253
0.00907478
0.00904426
0.00901112
0.00897551
0.00893757
0.00889744
0.00885528
0.00881124
0.00876546
0.00871808
0.00866925
0.00861912
0.00856782
0.00851551
0.00846232
0.00840839
0.00835386
0.00829887
0.00824356
0.00818805
0.00813249
0.008077
0.00802171
0.00796675
0.00791225
0.00785833
0.00780511
0.00775271
0.00770124
0.00765083
0.00760158
0.0075536
0.00750701
0.0074619
0.00741838
0.00737655
0.00733651
0.00729834
0.00726215
0.00722801
0.00719602
0.00716625
0.00713879
0.00711371
0.00709109
0.00707099
0.00705348
0.00703863
0.0070265
0.00701713
0.0070106
0.00700694
0.0070062
0.00700843
0.00701367
0.00702195
0.00703331
0.00704778
0.00706538
0.00708613
0.00711007
0.00713719
0.00716752
0.00720106
0.00723782
0.0072778
0.007321
0.00736741
0.00741703
0.00746985
0.00752585
0.00758501
0.00764732
0.00771274
0.00778125
0.00785283
0.00792743
0.00800502
0.00808556
0.00816901
0.00825533
0.00834446
0.00843636
0.00853098
0.00862826
0.00872815
0.00883058
0.0089355
0.00904285
0.00915255
0.00926456
0.00937879
0.00949518
0.00961367
0.00973419
0.00985666
0.00998101
0.0101072
0.0102351
0.0103647
0.0104958
0.0106286
0.0107627
0.0108983
0.0110352
0.0111733
0.0113126
0.0114531
0.0115946
0.0117371
0.0118805
0.0120248
0.01217
0.0123159
0.0124625
0.0126098
0.0127578
0.0129063
0.0130553
0.0132048
0.0133548
0.0135053
0.0136561
0.0138073
0.0139588
0.0141106
0.0142628
0.0144152
0.0145679
0.0147208
0.014874
0.0150274
0.0151811
0.0153349
0.015489
0.0156434
0.0157979
0.0159527
0.0161077
0.0162629
0.0164184
0.0165742
0.0167302
0.0168864
0.0170429
0.0171998
0.0173568
0.0175142
0.0176719
0.0178299
0.0179882
0.0181468
0.0183057
0.0184649
0.0186243
0.0187841
0.0189442
0.0191045
0.0192651
0.0194259
0.019587
0.0197482
0.0199096
0.0200711
0.0202327
0.0203944
0.0205561
0.0207178
0.0208794
0.0210409
0.0212022
0.0213632
0.021524
0.0216844
0.0218443
0.0220038
0.0221627
0.0223209
0.0224783
0.022635
0.0227907
0.0229454
0.0230991
0.0232515
0.0234027
0.0235526
0.0237009
0.0238477
0.0239929
0.0241362
0.0242778
0.0244174
0.0245549
0.0246903
0.0248235
0.0249543
0.0250827
0.0252086
0.0253318
0.0254524
0.0255702
0.0256852
0.0257972
0.0259062
0.0260121
0.0261148
0.0262144
0.0263107
0.0264036
0.0264931
0.0265792
0.0266619
0.026741
0.0268166
0.0268886
0.026957
0.0270217
0.0270828
0.0271403
0.0271942
0.0272444
0.0272909
0.0273338
0.0273731
0.0274089
0.027441
0.0274696
0.0274948
0.0275165
0.0275347
0.0275496
0.0275613
0.0275696
0.0275748
0.0275769
0.027576
0.0275721
0.0275653
0.0275557
0.0275434
0.0275285
0.027511
0.0274911
0.0274689
0.0274444
0.0274177
0.0273891
0.0273585
0.0273261
0.0272919
0.0272562
0.0272189
0.0271803
0.0271404
0.0270993
0.0270571
0.027014
0.0269701
0.0269254
0.0268801
0.0268343
0.0267881
0.0267416
0.0266949
0.026648
0.0266012
0.0265545
0.026508
0.0264618
0.026416
0.0263706
0.0263258
0.0262817
0.0262383
0.0261956
0.0261539
0.026113
0.0260732
0.0260345
0.0259969
0.0259605
0.0259254
0.0258915
0.025859
0.0258279
0.0257982
0.02577
0.0257433
0.0257181
0.0256945
0.0256725
0.025652
0.0256332
0.0256159
0.0256003
0.0255864
0.025574
0.0255634
0.0255543
0.0255469
0.025541
0.0255368
0.0255341
0.025533
0.0255334
0.0255354
0.0255388
0.0255437
0.02555
0.0255577
0.0255667
0.025577
0.0255887
0.0256015
0.0256155
0.0256307
0.025647
0.0256643
0.0256826
0.0257019
0.025722
0.025743
0.0257648
0.0257874
0.0258106
0.0258344
0.0258589
0.0258838
0.0259093
0.0259351
0.0259613
0.0259878
0.0260146
0.0260416
0.0260687
0.0260959
0.0261231
0.0261504
0.0261776
0.0262047
0.0262316
0.0262583
0.0262848
0.0263109
0.0263368
0.0263622
0.0263872
0.0264118
0.0264358
0.0264593
0.0264821
0.0265044
0.026526
0.0265469
0.0265671
0.0265865
0.0266051
0.026623
0.0266399
0.0266561
0.0266713
0.0266856
0.026699
0.0267114
0.0267228
0.0267333
0.0267427
0.0267512
0.0267586
0.0267649
0.0267703
0.0267745
0.0267777
0.0267799
0.026781
0.294354
0.29374
0.292639
0.290992
0.288834
0.286155
0.282982
0.279335
0.27523
0.270694
0.265757
0.260442
0.254787
0.248816
0.242568
0.236072
0.229365
0.22248
0.21545
0.208307
0.201083
0.19381
0.186516
0.17923
0.171978
0.164784
0.15767
0.150657
0.143763
0.137003
0.130391
0.12394
0.117659
0.111558
0.105641
0.0999152
0.0943833
0.0890481
0.0839107
0.0789715
0.0742299
0.0696847
0.0653339
0.0611751
0.0572055
0.0534218
0.0498204
0.0463977
0.0431499
0.0400727
0.0371622
0.034414
0.031824
0.0293876
0.0271005
0.0249582
0.0229561
0.0210896
0.019354
0.0177447
0.0162569
0.0148857
0.0136263
0.0124737
0.0114231
0.0104696
0.00960809
0.0088338
0.00814185
0.00752738
0.00698568
0.00651204
0.00610192
0.00575083
0.00545448
0.00520866
0.00500934
0.00485265
0.00473489
0.00465251
0.00460216
0.00458067
0.00458504
0.00461246
0.00466027
0.00472602
0.00480741
0.00490231
0.00500873
0.00512486
0.00524902
0.00537967
0.00551541
0.00565495
0.00579713
0.0059409
0.0060853
0.00622948
0.00637266
0.00651417
0.0066534
0.00678982
0.00692295
0.00705239
0.00717778
0.00729882
0.00741525
0.00752685
0.00763345
0.00773491
0.00783112
0.00792199
0.00800747
0.00808754
0.00816217
0.00823138
0.00829519
0.00835365
0.00840681
0.00845474
0.00849751
0.00853521
0.00856795
0.00859582
0.00861893
0.00863741
0.00865137
0.00866094
0.00866625
0.00866744
0.00866465
0.00865801
0.00864767
0.00863376
0.00861644
0.00859586
0.00857215
0.00854548
0.00851598
0.00848381
0.00844912
0.00841205
0.00837276
0.0083314
0.0082881
0.00824303
0.00819633
0.00814815
0.00809862
0.00804791
0.00799614
0.00794347
0.00789004
0.00783597
0.00778143
0.00772653
0.00767142
0.00761623
0.00756109
0.00750613
0.00745149
0.00739729
0.00734364
0.00729068
0.00723853
0.0071873
0.00713711
0.00708806
0.00704028
0.00699387
0.00694894
0.00690558
0.0068639
0.006824
0.00678597
0.0067499
0.00671589
0.00668401
0.00665434
0.00662698
0.006602
0.00657946
0.00655945
0.00654202
0.00652725
0.00651518
0.00650589
0.00649942
0.00649582
0.00649514
0.00649743
0.00650272
0.00651105
0.00652246
0.00653698
0.00655462
0.00657543
0.0065994
0.00662657
0.00665694
0.00669053
0.00672733
0.00676735
0.0068106
0.00685705
0.00690672
0.00695958
0.00701562
0.00707483
0.00713718
0.00720264
0.0072712
0.00734282
0.00741747
0.00749511
0.0075757
0.0076592
0.00774556
0.00783475
0.0079267
0.00802137
0.0081187
0.00821864
0.00832113
0.00842611
0.00853351
0.00864327
0.00875533
0.00886963
0.00898608
0.00910463
0.00922521
0.00934774
0.00947216
0.00959839
0.00972637
0.00985601
0.00998726
0.01012
0.0102543
0.0103899
0.0105269
0.0106651
0.0108045
0.010945
0.0110866
0.0112291
0.0113727
0.0115171
0.0116623
0.0118083
0.011955
0.0121024
0.0122504
0.012399
0.0125481
0.0126977
0.0128478
0.0129983
0.0131492
0.0133004
0.013452
0.0136039
0.0137562
0.0139087
0.0140614
0.0142144
0.0143677
0.0145212
0.0146749
0.0148289
0.0149831
0.0151374
0.0152921
0.0154469
0.015602
0.0157573
0.0159129
0.0160687
0.0162247
0.016381
0.0165376
0.0166945
0.0168517
0.0170091
0.0171668
0.0173249
0.0174832
0.0176419
0.0178008
0.01796
0.0181196
0.0182794
0.0184395
0.0185999
0.0187605
0.0189214
0.0190824
0.0192437
0.0194051
0.0195667
0.0197283
0.01989
0.0200517
0.0202134
0.0203751
0.0205365
0.0206979