/*--------------------------------*- C++ -*----------------------------------*\
| =========                 |                                                 |
| \\      /  F ield         | OpenFOAM: The Open Source CFD Toolbox           |
|  \\    /   O peration     | Version:  v2012                                 |
|   \\  /    A nd           | Website:  www.openfoam.com                      |
|    \\/     M anipulation  |                                                 |
\*---------------------------------------------------------------------------*/
FoamFile
{
    version     2.0;
    format      ascii;
    class       volVectorField;
    location    "150";
    object      U_filtered;
}
// * * * * * * * * * * * * * * * * * * * * * * * * * * * * * * * * * * * * * //

dimensions      [0 1 -1 0 0 0 0];


internalField   nonuniform List<vector> 
65536
(
(0.29827 -0.302124 0)
(0.896674 -0.299852 0)
(1.49427 -0.298524 0)
(2.08724 -0.296028 0)
(2.67561 -0.293161 0)
(3.25722 -0.289498 0)
(3.83124 -0.285251 0)
(4.39601 -0.28031 0)
(4.95048 -0.274761 0)
(5.49325 -0.268584 0)
(6.02324 -0.261834 0)
(6.53923 -0.254519 0)
(7.0402 -0.246689 0)
(7.5251 -0.238362 0)
(7.99302 -0.22959 0)
(8.44309 -0.220399 0)
(8.8745 -0.210841 0)
(9.28658 -0.200948 0)
(9.67867 -0.190772 0)
(10.0503 -0.180351 0)
(10.4009 -0.169735 0)
(10.7303 -0.158964 0)
(11.0381 -0.148086 0)
(11.3241 -0.137144 0)
(11.5883 -0.126183 0)
(11.8307 -0.115243 0)
(12.0513 -0.104366 0)
(12.2503 -0.0935898 0)
(12.4279 -0.0829529 0)
(12.5845 -0.0724889 0)
(12.7203 -0.0622313 0)
(12.8359 -0.0522093 0)
(12.9318 -0.0424508 0)
(13.0084 -0.03298 0)
(13.0664 -0.0238191 0)
(13.1064 -0.0149864 0)
(13.1291 -0.00649859 0)
(13.1352 0.00163165 0)
(13.1253 0.00939339 0)
(13.1004 0.0167792 0)
(13.061 0.0237834 0)
(13.008 0.0304035 0)
(12.9421 0.0366384 0)
(12.8641 0.0424899 0)
(12.7748 0.0479609 0)
(12.6749 0.0530567 0)
(12.5651 0.0577836 0)
(12.4463 0.0621497 0)
(12.319 0.0661638 0)
(12.1841 0.0698362 0)
(12.0421 0.0731778 0)
(11.8937 0.0762001 0)
(11.7396 0.0789154 0)
(11.5804 0.0813363 0)
(11.4165 0.0834755 0)
(11.2487 0.0853464 0)
(11.0773 0.0869618 0)
(10.903 0.0883351 0)
(10.7261 0.0894791 0)
(10.5471 0.0904069 0)
(10.3664 0.0911311 0)
(10.1845 0.0916641 0)
(10.0017 0.0920179 0)
(9.81838 0.0922042 0)
(9.63479 0.0922345 0)
(9.45129 0.0921196 0)
(9.26814 0.0918701 0)
(9.0856 0.091496 0)
(8.90391 0.0910072 0)
(8.72331 0.0904126 0)
(8.54398 0.0897213 0)
(8.36611 0.0889416 0)
(8.18987 0.0880813 0)
(8.01542 0.0871481 0)
(7.84289 0.0861492 0)
(7.67242 0.0850911 0)
(7.5041 0.0839803 0)
(7.33805 0.0828228 0)
(7.17434 0.0816242 0)
(7.01306 0.0803898 0)
(6.85427 0.0791246 0)
(6.69804 0.0778332 0)
(6.5444 0.0765199 0)
(6.3934 0.0751887 0)
(6.24506 0.0738435 0)
(6.09943 0.0724878 0)
(5.9565 0.0711247 0)
(5.8163 0.0697573 0)
(5.67883 0.0683883 0)
(5.54409 0.0670203 0)
(5.41208 0.0656557 0)
(5.28279 0.0642965 0)
(5.1562 0.0629448 0)
(5.0323 0.0616024 0)
(4.91107 0.0602708 0)
(4.79248 0.0589516 0)
(4.67652 0.057646 0)
(4.56314 0.0563553 0)
(4.45233 0.0550805 0)
(4.34404 0.0538224 0)
(4.23825 0.0525821 0)
(4.13492 0.0513601 0)
(4.03401 0.0501571 0)
(3.93548 0.0489735 0)
(3.83929 0.04781 0)
(3.74541 0.0466667 0)
(3.65379 0.0455441 0)
(3.56439 0.0444423 0)
(3.47717 0.0433615 0)
(3.39209 0.0423018 0)
(3.30911 0.0412633 0)
(3.22817 0.0402459 0)
(3.14925 0.0392497 0)
(3.0723 0.0382745 0)
(2.99727 0.0373203 0)
(2.92413 0.0363869 0)
(2.85283 0.0354742 0)
(2.78333 0.0345819 0)
(2.7156 0.0337099 0)
(2.64959 0.0328578 0)
(2.58526 0.0320255 0)
(2.52257 0.0312127 0)
(2.46149 0.030419 0)
(2.40197 0.0296442 0)
(2.34399 0.0288881 0)
(2.28749 0.0281502 0)
(2.23245 0.0274302 0)
(2.17883 0.0267279 0)
(2.1266 0.0260428 0)
(2.07572 0.0253747 0)
(2.02615 0.0247233 0)
(1.97787 0.0240881 0)
(1.93084 0.0234688 0)
(1.88503 0.0228652 0)
(1.84041 0.0222768 0)
(1.79695 0.0217033 0)
(1.75462 0.0211445 0)
(1.71339 0.0205999 0)
(1.67323 0.0200693 0)
(1.63412 0.0195523 0)
(1.59602 0.0190486 0)
(1.55891 0.0185578 0)
(1.52277 0.0180798 0)
(1.48757 0.0176141 0)
(1.45329 0.0171606 0)
(1.41989 0.0167187 0)
(1.38737 0.0162884 0)
(1.35568 0.0158693 0)
(1.32482 0.0154611 0)
(1.29476 0.0150636 0)
(1.26549 0.0146764 0)
(1.23697 0.0142994 0)
(1.20918 0.0139322 0)
(1.18212 0.0135747 0)
(1.15576 0.0132265 0)
(1.13008 0.0128874 0)
(1.10506 0.0125573 0)
(1.08069 0.0122358 0)
(1.05694 0.0119227 0)
(1.03381 0.0116179 0)
(1.01127 0.0113211 0)
(0.989304 0.011032 0)
(0.967905 0.0107506 0)
(0.947055 0.0104766 0)
(0.926737 0.0102098 0)
(0.906938 0.00994996 0)
(0.887644 0.00969699 0)
(0.86884 0.00945068 0)
(0.850514 0.00921085 0)
(0.832653 0.00897733 0)
(0.815244 0.00874996 0)
(0.798275 0.00852858 0)
(0.781734 0.00831302 0)
(0.765609 0.00810313 0)
(0.749888 0.00789878 0)
(0.734562 0.0076998 0)
(0.719619 0.00750606 0)
(0.705049 0.00731742 0)
(0.690841 0.00713376 0)
(0.676986 0.00695493 0)
(0.663474 0.0067808 0)
(0.650296 0.00661127 0)
(0.637443 0.0064462 0)
(0.624905 0.00628548 0)
(0.612674 0.006129 0)
(0.600742 0.00597664 0)
(0.589101 0.00582829 0)
(0.577743 0.00568386 0)
(0.566659 0.00554323 0)
(0.555843 0.00540631 0)
(0.545287 0.005273 0)
(0.534984 0.00514321 0)
(0.524928 0.00501684 0)
(0.515111 0.00489381 0)
(0.505527 0.00477402 0)
(0.496169 0.00465739 0)
(0.487032 0.00454384 0)
(0.478109 0.00443329 0)
(0.469395 0.00432566 0)
(0.460885 0.00422087 0)
(0.452571 0.00411885 0)
(0.44445 0.00401953 0)
(0.436516 0.00392283 0)
(0.428763 0.00382868 0)
(0.421188 0.00373703 0)
(0.413785 0.0036478 0)
(0.406549 0.00356093 0)
(0.399477 0.00347636 0)
(0.392564 0.00339402 0)
(0.385805 0.00331387 0)
(0.379197 0.00323583 0)
(0.372735 0.00315986 0)
(0.366415 0.0030859 0)
(0.360235 0.0030139 0)
(0.35419 0.00294381 0)
(0.348276 0.00287557 0)
(0.342491 0.00280913 0)
(0.33683 0.00274446 0)
(0.331291 0.0026815 0)
(0.325871 0.0026202 0)
(0.320565 0.00256052 0)
(0.315373 0.00250242 0)
(0.31029 0.00244586 0)
(0.305314 0.00239079 0)
(0.300441 0.00233718 0)
(0.295671 0.00228498 0)
(0.290999 0.00223416 0)
(0.286424 0.00218468 0)
(0.281942 0.00213651 0)
(0.277553 0.0020896 0)
(0.273253 0.00204392 0)
(0.26904 0.00199945 0)
(0.264912 0.00195614 0)
(0.260867 0.00191396 0)
(0.256903 0.00187289 0)
(0.253018 0.00183289 0)
(0.249211 0.00179394 0)
(0.245478 0.001756 0)
(0.241819 0.00171904 0)
(0.238232 0.00168304 0)
(0.234715 0.00164798 0)
(0.231266 0.00161382 0)
(0.227884 0.00158053 0)
(0.224567 0.00154811 0)
(0.221314 0.00151651 0)
(0.218122 0.00148571 0)
(0.214992 0.0014557 0)
(0.21192 0.00142645 0)
(0.208907 0.00139794 0)
(0.20595 0.00137015 0)
(0.203048 0.00134305 0)
(0.2002 0.00131662 0)
(0.197405 0.00129085 0)
(0.194661 0.00126572 0)
(0.191967 0.0012412 0)
(0.189322 0.00121728 0)
(0.186725 0.00119394 0)
(0.184175 0.00117116 0)
(0.18167 0.00114893 0)
(0.179209 0.00112723 0)
(0.176792 0.00110604 0)
(0.174417 0.00108534 0)
(0.172083 0.00106513 0)
(0.16979 0.00104539 0)
(0.167535 0.00102609 0)
(0.165319 0.00100724 0)
(0.16314 0.000988806 0)
(0.160998 0.000970785 0)
(0.158891 0.000953162 0)
(0.156818 0.000935923 0)
(0.154779 0.000919056 0)
(0.152772 0.00090255 0)
(0.150797 0.000886392 0)
(0.148854 0.000870572 0)
(0.14694 0.000855077 0)
(0.145056 0.000839899 0)
(0.1432 0.000825025 0)
(0.141371 0.000810446 0)
(0.13957 0.000796152 0)
(0.137795 0.000782133 0)
(0.136046 0.000768381 0)
(0.134321 0.000754886 0)
(0.13262 0.00074164 0)
(0.130942 0.000728633 0)
(0.129288 0.000715859 0)
(0.127655 0.000703309 0)
(0.126044 0.000690975 0)
(0.124453 0.00067885 0)
(0.122883 0.000666927 0)
(0.121333 0.000655198 0)
(0.119801 0.000643658 0)
(0.118288 0.0006323 0)
(0.116793 0.000621116 0)
(0.115316 0.000610103 0)
(0.113856 0.000599252 0)
(0.112413 0.00058856 0)
(0.110986 0.00057802 0)
(0.109575 0.000567628 0)
(0.108179 0.000557378 0)
(0.106798 0.000547266 0)
(0.105432 0.000537287 0)
(0.104081 0.000527436 0)
(0.102744 0.00051771 0)
(0.101421 0.000508105 0)
(0.100111 0.000498616 0)
(0.0988146 0.00048924 0)
(0.0975315 0.000479974 0)
(0.0962614 0.000470815 0)
(0.0950041 0.000461758 0)
(0.0937594 0.000452802 0)
(0.0925272 0.000443943 0)
(0.0913074 0.000435179 0)
(0.0900999 0.000426508 0)
(0.0889046 0.000417927 0)
(0.0877213 0.000409434 0)
(0.0865502 0.000401026 0)
(0.085391 0.000392703 0)
(0.0842438 0.000384463 0)
(0.0831085 0.000376304 0)
(0.0819852 0.000368224 0)
(0.0808738 0.000360222 0)
(0.0797744 0.000352298 0)
(0.078687 0.000344449 0)
(0.0776116 0.000336676 0)
(0.0765483 0.000328978 0)
(0.075497 0.000321353 0)
(0.074458 0.000313801 0)
(0.0734311 0.000306323 0)
(0.0724166 0.000298917 0)
(0.0714144 0.000291583 0)
(0.0704246 0.000284322 0)
(0.0694472 0.000277133 0)
(0.0684825 0.000270016 0)
(0.0675303 0.000262972 0)
(0.0665909 0.000256 0)
(0.0656641 0.000249101 0)
(0.0647502 0.000242276 0)
(0.0638492 0.000235524 0)
(0.0629611 0.000228847 0)
(0.062086 0.000222245 0)
(0.0612238 0.000215718 0)
(0.0603748 0.000209267 0)
(0.0595388 0.000202894 0)
(0.0587158 0.000196598 0)
(0.0579061 0.00019038 0)
(0.0571094 0.000184242 0)
(0.0563258 0.000178184 0)
(0.0555553 0.000172207 0)
(0.0547979 0.000166312 0)
(0.0540535 0.0001605 0)
(0.0533221 0.000154771 0)
(0.0526037 0.000149127 0)
(0.051898 0.000143569 0)
(0.0512052 0.000138097 0)
(0.0505251 0.000132713 0)
(0.0498576 0.000127417 0)
(0.0492025 0.00012221 0)
(0.0485598 0.000117093 0)
(0.0479294 0.000112067 0)
(0.047311 0.000107133 0)
(0.0467045 0.000102291 0)
(0.0461098 9.75419e-05 0)
(0.0455267 9.28871e-05 0)
(0.044955 8.83269e-05 0)
(0.0443944 8.38619e-05 0)
(0.0438449 7.94928e-05 0)
(0.0433062 7.522e-05 0)
(0.042778 7.10441e-05 0)
(0.0422601 6.69655e-05 0)
(0.0417523 6.29846e-05 0)
(0.0412544 5.91018e-05 0)
(0.040766 5.53174e-05 0)
(0.040287 5.16317e-05 0)
(0.0398171 4.80448e-05 0)
(0.0393559 4.45568e-05 0)
(0.0389033 4.11678e-05 0)
(0.0384589 3.78779e-05 0)
(0.0380225 3.4687e-05 0)
(0.0375938 3.15951e-05 0)
(0.0371724 2.8602e-05 0)
(0.0367582 2.57074e-05 0)
(0.0363508 2.29112e-05 0)
(0.0359499 2.02131e-05 0)
(0.0355553 1.76126e-05 0)
(0.0351666 1.51094e-05 0)
(0.0347835 1.2703e-05 0)
(0.0344059 1.03928e-05 0)
(0.0340333 8.17844e-06 0)
(0.0336656 6.05915e-06 0)
(0.0333024 4.03434e-06 0)
(0.0329435 2.10329e-06 0)
(0.0325885 2.65272e-07 0)
(0.0322373 -1.48049e-06 0)
(0.0318896 -3.13482e-06 0)
(0.0315451 -4.69857e-06 0)
(0.0312036 -6.17262e-06 0)
(0.0308648 -7.55789e-06 0)
(0.0305285 -8.85533e-06 0)
(0.0301945 -1.00659e-05 0)
(0.0298625 -1.11907e-05 0)
(0.0295325 -1.22306e-05 0)
(0.029204 -1.31867e-05 0)
(0.028877 -1.40602e-05 0)
(0.0285514 -1.4852e-05 0)
(0.0282268 -1.55633e-05 0)
(0.0279031 -1.61952e-05 0)
(0.0275802 -1.67488e-05 0)
(0.027258 -1.72254e-05 0)
(0.0269362 -1.7626e-05 0)
(0.0266148 -1.79517e-05 0)
(0.0262937 -1.82039e-05 0)
(0.0259727 -1.83836e-05 0)
(0.0256517 -1.8492e-05 0)
(0.0253307 -1.85304e-05 0)
(0.0250096 -1.84998e-05 0)
(0.0246883 -1.84016e-05 0)
(0.0243667 -1.82369e-05 0)
(0.0240448 -1.8007e-05 0)
(0.0237226 -1.77129e-05 0)
(0.0234 -1.73559e-05 0)
(0.023077 -1.69372e-05 0)
(0.0227536 -1.64579e-05 0)
(0.0224298 -1.59193e-05 0)
(0.0221055 -1.53225e-05 0)
(0.0217809 -1.46688e-05 0)
(0.0214559 -1.39593e-05 0)
(0.0211305 -1.31953e-05 0)
(0.0208048 -1.23778e-05 0)
(0.0204788 -1.15083e-05 0)
(0.0201526 -1.05877e-05 0)
(0.0198263 -9.61738e-06 0)
(0.0194998 -8.59851e-06 0)
(0.0191733 -7.5323e-06 0)
(0.0188468 -6.41996e-06 0)
(0.0185204 -5.26273e-06 0)
(0.0181943 -4.06182e-06 0)
(0.0178684 -2.81848e-06 0)
(0.0175429 -1.53395e-06 0)
(0.0172179 -2.09503e-07 0)
(0.0168935 1.15358e-06 0)
(0.0165698 2.55403e-06 0)
(0.0162468 3.99053e-06 0)
(0.0159248 5.4618e-06 0)
(0.0156038 6.9665e-06 0)
(0.0152839 8.50329e-06 0)
(0.0149652 1.00708e-05 0)
(0.0146479 1.16677e-05 0)
(0.0143321 1.32925e-05 0)
(0.0140179 1.49439e-05 0)
(0.0137054 1.66203e-05 0)
(0.0133947 1.83205e-05 0)
(0.013086 2.00428e-05 0)
(0.0127793 2.17858e-05 0)
(0.0124748 2.3548e-05 0)
(0.0121725 2.53278e-05 0)
(0.0118727 2.71236e-05 0)
(0.0115753 2.89339e-05 0)
(0.0112806 3.0757e-05 0)
(0.0109885 3.25914e-05 0)
(0.0106992 3.44354e-05 0)
(0.0104129 3.62873e-05 0)
(0.0101295 3.81454e-05 0)
(0.00984912 4.0008e-05 0)
(0.00957192 4.18734e-05 0)
(0.00929793 4.37398e-05 0)
(0.00902724 4.56055e-05 0)
(0.0087599 4.74687e-05 0)
(0.00849597 4.93276e-05 0)
(0.00823551 5.11804e-05 0)
(0.00797857 5.30253e-05 0)
(0.00772519 5.48603e-05 0)
(0.00747541 5.66838e-05 0)
(0.00722926 5.84939e-05 0)
(0.00698675 6.02887e-05 0)
(0.00674793 6.20663e-05 0)
(0.00651277 6.3825e-05 0)
(0.00628132 6.55629e-05 0)
(0.00605353 6.72781e-05 0)
(0.00582945 6.89688e-05 0)
(0.005609 7.06332e-05 0)
(0.00539222 7.22695e-05 0)
(0.00517902 7.38759e-05 0)
(0.00496944 7.54506e-05 0)
(0.00476335 7.69919e-05 0)
(0.0045608 7.84979e-05 0)
(0.00436162 7.99673e-05 0)
(0.00416588 8.13978e-05 0)
(0.00397337 8.27885e-05 0)
(0.00378417 8.41371e-05 0)
(0.00359804 8.54426e-05 0)
(0.00341506 8.67029e-05 0)
(0.00323496 8.79173e-05 0)
(0.00305783 8.90834e-05 0)
(0.00288337 9.02008e-05 0)
(0.00271168 9.12672e-05 0)
(0.00254244 9.22824e-05 0)
(0.00237574 9.32439e-05 0)
(0.00221123 9.41523e-05 0)
(0.00204902 9.50042e-05 0)
(0.00188874 9.58016e-05 0)
(0.0017305 9.65398e-05 0)
(0.00157391 9.7223e-05 0)
(0.00141907 9.78436e-05 0)
(0.00126562 9.84101e-05 0)
(0.00111358 9.89097e-05 0)
(0.000962688 9.93582e-05 0)
(0.000812794 9.97335e-05 0)
(0.000663904 0.000100062 0)
(0.000515483 0.000100313 0)
(0.000367999 0.000100509 0)
(0.000220402 0.000100656 0)
(7.35897e-05 0.000100622 0)
(0.299776 -0.904984 0)
(0.899442 -0.90144 0)
(1.49715 -0.89724 0)
(2.09107 -0.89043 0)
(2.6802 -0.881778 0)
(3.26274 -0.870919 0)
(3.83761 -0.858122 0)
(4.40326 -0.843289 0)
(4.95855 -0.826573 0)
(5.5021 -0.807984 0)
(6.03282 -0.787654 0)
(6.54949 -0.765626 0)
(7.05108 -0.742042 0)
(7.53654 -0.716965 0)
(8.00494 -0.690546 0)
(8.45542 -0.662866 0)
(8.88717 -0.634081 0)
(9.29951 -0.604288 0)
(9.69179 -0.573644 0)
(10.0635 -0.542261 0)
(10.4142 -0.510292 0)
(10.7435 -0.477859 0)
(11.0511 -0.445108 0)
(11.337 -0.412163 0)
(11.6009 -0.379162 0)
(11.8429 -0.346227 0)
(12.0631 -0.313484 0)
(12.2616 -0.281048 0)
(12.4387 -0.249032 0)
(12.5946 -0.21754 0)
(12.7299 -0.186671 0)
(12.8448 -0.156514 0)
(12.9399 -0.127152 0)
(13.0157 -0.0986594 0)
(13.0729 -0.0711011 0)
(13.1121 -0.0445335 0)
(13.134 -0.0190056 0)
(13.1392 0.00544366 0)
(13.1285 0.0287823 0)
(13.1027 0.0509874 0)
(13.0624 0.0720428 0)
(13.0086 0.0919405 0)
(12.9418 0.110678 0)
(12.863 0.12826 0)
(12.7729 0.144697 0)
(12.6722 0.160004 0)
(12.5617 0.1742 0)
(12.4421 0.18731 0)
(12.3141 0.19936 0)
(12.1785 0.210383 0)
(12.0358 0.220409 0)
(11.8868 0.229476 0)
(11.7321 0.237618 0)
(11.5723 0.244876 0)
(11.4079 0.251286 0)
(11.2396 0.256889 0)
(11.0678 0.261725 0)
(10.893 0.265832 0)
(10.7157 0.269251 0)
(10.5363 0.272019 0)
(10.3554 0.274176 0)
(10.1732 0.275758 0)
(9.9901 0.276803 0)
(9.80651 0.277344 0)
(9.62272 0.277417 0)
(9.43903 0.277054 0)
(9.25572 0.276287 0)
(9.07306 0.275146 0)
(8.89127 0.273661 0)
(8.71059 0.271859 0)
(8.5312 0.269766 0)
(8.3533 0.267409 0)
(8.17706 0.26481 0)
(8.00261 0.261993 0)
(7.83011 0.258979 0)
(7.65968 0.255788 0)
(7.49143 0.252439 0)
(7.32545 0.24895 0)
(7.16183 0.245339 0)
(7.00065 0.24162 0)
(6.84198 0.23781 0)
(6.68587 0.233922 0)
(6.53236 0.229968 0)
(6.38151 0.225961 0)
(6.23333 0.221913 0)
(6.08785 0.217833 0)
(5.94509 0.213732 0)
(5.80506 0.209618 0)
(5.66777 0.2055 0)
(5.53321 0.201385 0)
(5.40138 0.197281 0)
(5.27227 0.193194 0)
(5.14587 0.189129 0)
(5.02216 0.185093 0)
(4.90112 0.181089 0)
(4.78273 0.177123 0)
(4.66696 0.173198 0)
(4.55377 0.169318 0)
(4.44315 0.165486 0)
(4.33506 0.161705 0)
(4.22946 0.157977 0)
(4.12632 0.154304 0)
(4.02559 0.150688 0)
(3.92725 0.147131 0)
(3.83125 0.143635 0)
(3.73755 0.140199 0)
(3.64611 0.136826 0)
(3.55689 0.133515 0)
(3.46984 0.130267 0)
(3.38493 0.127083 0)
(3.30211 0.123962 0)
(3.22135 0.120905 0)
(3.14259 0.117912 0)
(3.06579 0.114982 0)
(2.99092 0.112115 0)
(2.91794 0.109311 0)
(2.84679 0.106569 0)
(2.77744 0.103888 0)
(2.70986 0.101268 0)
(2.64399 0.098708 0)
(2.5798 0.0962074 0)
(2.51725 0.0937654 0)
(2.4563 0.0913811 0)
(2.39691 0.0890535 0)
(2.33905 0.0867818 0)
(2.28268 0.084565 0)
(2.22777 0.0824021 0)
(2.17427 0.0802922 0)
(2.12215 0.0782342 0)
(2.07138 0.0762272 0)
(2.02192 0.07427 0)
(1.97375 0.0723619 0)
(1.92683 0.0705016 0)
(1.88112 0.0686881 0)
(1.8366 0.0669206 0)
(1.79324 0.0651979 0)
(1.751 0.0635191 0)
(1.70986 0.0618832 0)
(1.6698 0.0602891 0)
(1.63077 0.058736 0)
(1.59276 0.0572228 0)
(1.55574 0.0557487 0)
(1.51968 0.0543127 0)
(1.48456 0.0529138 0)
(1.45035 0.0515512 0)
(1.41703 0.050224 0)
(1.38458 0.0489313 0)
(1.35297 0.0476723 0)
(1.32218 0.046446 0)
(1.29219 0.0452518 0)
(1.26298 0.0440888 0)
(1.23452 0.0429562 0)
(1.2068 0.0418532 0)
(1.1798 0.0407791 0)
(1.1535 0.0397332 0)
(1.12787 0.0387147 0)
(1.10291 0.0377228 0)
(1.0786 0.0367571 0)
(1.0549 0.0358166 0)
(1.03182 0.0349009 0)
(1.00933 0.0340093 0)
(0.987421 0.033141 0)
(0.966071 0.0322956 0)
(0.945268 0.0314725 0)
(0.924996 0.0306709 0)
(0.905242 0.0298905 0)
(0.885991 0.0291306 0)
(0.86723 0.0283907 0)
(0.848946 0.0276702 0)
(0.831125 0.0269687 0)
(0.813756 0.0262857 0)
(0.796825 0.0256207 0)
(0.780321 0.0249731 0)
(0.764232 0.0243427 0)
(0.748547 0.0237288 0)
(0.733255 0.023131 0)
(0.718346 0.0225491 0)
(0.703808 0.0219824 0)
(0.689632 0.0214307 0)
(0.675809 0.0208935 0)
(0.662327 0.0203704 0)
(0.649178 0.0198612 0)
(0.636353 0.0193653 0)
(0.623843 0.0188825 0)
(0.61164 0.0184125 0)
(0.599735 0.0179548 0)
(0.588119 0.0175092 0)
(0.576786 0.0170753 0)
(0.565727 0.0166529 0)
(0.554935 0.0162416 0)
(0.544402 0.0158411 0)
(0.534122 0.0154513 0)
(0.524088 0.0150717 0)
(0.514292 0.0147021 0)
(0.504729 0.0143423 0)
(0.495392 0.0139919 0)
(0.486275 0.0136508 0)
(0.477371 0.0133188 0)
(0.468676 0.0129955 0)
(0.460184 0.0126807 0)
(0.451888 0.0123743 0)
(0.443784 0.0120759 0)
(0.435867 0.0117854 0)
(0.428131 0.0115027 0)
(0.420572 0.0112274 0)
(0.413185 0.0109593 0)
(0.405965 0.0106984 0)
(0.398907 0.0104444 0)
(0.392009 0.010197 0)
(0.385264 0.00995628 0)
(0.378669 0.00972189 0)
(0.372221 0.0094937 0)
(0.365915 0.00927155 0)
(0.359747 0.00905529 0)
(0.353714 0.00884475 0)
(0.347813 0.00863978 0)
(0.342039 0.00844024 0)
(0.33639 0.00824598 0)
(0.330862 0.00805686 0)
(0.325453 0.00787274 0)
(0.320158 0.0076935 0)
(0.314976 0.007519 0)
(0.309903 0.00734911 0)
(0.304937 0.00718371 0)
(0.300074 0.00702268 0)
(0.295313 0.0068659 0)
(0.29065 0.00671326 0)
(0.286084 0.00656464 0)
(0.281611 0.00641994 0)
(0.27723 0.00627905 0)
(0.272938 0.00614186 0)
(0.268733 0.00600827 0)
(0.264613 0.00587819 0)
(0.260575 0.00575152 0)
(0.256619 0.00562816 0)
(0.252741 0.00550803 0)
(0.24894 0.00539103 0)
(0.245215 0.00527707 0)
(0.241563 0.00516608 0)
(0.237982 0.00505796 0)
(0.234471 0.00495264 0)
(0.231028 0.00485004 0)
(0.227652 0.00475007 0)
(0.224341 0.00465267 0)
(0.221093 0.00455777 0)
(0.217907 0.00446528 0)
(0.214782 0.00437515 0)
(0.211716 0.0042873 0)
(0.208708 0.00420166 0)
(0.205756 0.00411818 0)
(0.202859 0.00403678 0)
(0.200016 0.00395742 0)
(0.197225 0.00388002 0)
(0.194485 0.00380453 0)
(0.191796 0.00373089 0)
(0.189155 0.00365904 0)
(0.186562 0.00358894 0)
(0.184016 0.00352054 0)
(0.181515 0.00345376 0)
(0.179058 0.00338858 0)
(0.176644 0.00332494 0)
(0.174273 0.00326279 0)
(0.171943 0.00320208 0)
(0.169652 0.00314278 0)
(0.167401 0.00308484 0)
(0.165189 0.00302821 0)
(0.163013 0.00297285 0)
(0.160873 0.00291873 0)
(0.158769 0.0028658 0)
(0.156699 0.00281402 0)
(0.154663 0.00276336 0)
(0.152659 0.00271379 0)
(0.150687 0.00266526 0)
(0.148746 0.00261775 0)
(0.146835 0.00257122 0)
(0.144953 0.00252563 0)
(0.143099 0.00248096 0)
(0.141273 0.00243718 0)
(0.139474 0.00239425 0)
(0.137702 0.00235215 0)
(0.135954 0.00231085 0)
(0.134231 0.00227033 0)
(0.132533 0.00223055 0)
(0.130857 0.00219149 0)
(0.129204 0.00215313 0)
(0.127573 0.00211544 0)
(0.125964 0.0020784 0)
(0.124375 0.00204199 0)
(0.122807 0.00200618 0)
(0.121258 0.00197096 0)
(0.119728 0.00193631 0)
(0.118217 0.0019022 0)
(0.116724 0.00186862 0)
(0.115248 0.00183555 0)
(0.113789 0.00180297 0)
(0.112347 0.00177086 0)
(0.110922 0.00173921 0)
(0.109512 0.001708 0)
(0.108117 0.00167723 0)
(0.106738 0.00164686 0)
(0.105373 0.0016169 0)
(0.104023 0.00158732 0)
(0.102687 0.00155811 0)
(0.101365 0.00152927 0)
(0.100056 0.00150078 0)
(0.0987613 0.00147262 0)
(0.0974792 0.0014448 0)
(0.0962101 0.0014173 0)
(0.0949538 0.0013901 0)
(0.0937101 0.00136321 0)
(0.0924789 0.0013366 0)
(0.09126 0.00131029 0)
(0.0900534 0.00128425 0)
(0.0888589 0.00125848 0)
(0.0876766 0.00123297 0)
(0.0865062 0.00120772 0)
(0.0853478 0.00118272 0)
(0.0842014 0.00115798 0)
(0.0830669 0.00113347 0)
(0.0819444 0.0011092 0)
(0.0808338 0.00108517 0)
(0.0797351 0.00106137 0)
(0.0786484 0.00103779 0)
(0.0775737 0.00101444 0)
(0.0765111 0.000991317 0)
(0.0754605 0.000968412 0)
(0.0744221 0.000945726 0)
(0.073396 0.000923259 0)
(0.072382 0.000901009 0)
(0.0713804 0.000878975 0)
(0.0703913 0.000857157 0)
(0.0694146 0.000835555 0)
(0.0684504 0.00081417 0)
(0.0674988 0.000793001 0)
(0.0665599 0.00077205 0)
(0.0656338 0.000751318 0)
(0.0647204 0.000730804 0)
(0.06382 0.000710512 0)
(0.0629324 0.000690442 0)
(0.0620578 0.000670596 0)
(0.0611962 0.000650976 0)
(0.0603476 0.000631584 0)
(0.0595122 0.000612423 0)
(0.0586898 0.000593494 0)
(0.0578805 0.0005748 0)
(0.0570843 0.000556343 0)
(0.0563012 0.000538127 0)
(0.0555312 0.000520153 0)
(0.0547743 0.000502424 0)
(0.0540304 0.000484943 0)
(0.0532994 0.000467714 0)
(0.0525814 0.000450738 0)
(0.0518763 0.000434018 0)
(0.0511839 0.000417558 0)
(0.0505043 0.000401359 0)
(0.0498372 0.000385425 0)
(0.0491826 0.000369759 0)
(0.0485403 0.000354362 0)
(0.0479103 0.000339238 0)
(0.0472923 0.000324389 0)
(0.0466863 0.000309817 0)
(0.046092 0.000295524 0)
(0.0455093 0.000281514 0)
(0.044938 0.000267787 0)
(0.0443779 0.000254346 0)
(0.0438288 0.000241193 0)
(0.0432904 0.000228329 0)
(0.0427626 0.000215756 0)
(0.0422452 0.000203475 0)
(0.0417378 0.000191487 0)
(0.0412402 0.000179794 0)
(0.0407523 0.000168397 0)
(0.0402736 0.000157295 0)
(0.0398041 0.000146491 0)
(0.0393433 0.000135984 0)
(0.038891 0.000125774 0)
(0.038447 0.000115862 0)
(0.038011 0.000106248 0)
(0.0375826 9.69306e-05 0)
(0.0371616 8.79104e-05 0)
(0.0367477 7.91866e-05 0)
(0.0363406 7.07585e-05 0)
(0.0359401 6.2625e-05 0)
(0.0355458 5.47853e-05 0)
(0.0351574 4.72379e-05 0)
(0.0347747 3.99817e-05 0)
(0.0343974 3.3015e-05 0)
(0.0340251 2.63362e-05 0)
(0.0336577 1.99435e-05 0)
(0.0332948 1.3835e-05 0)
(0.0329362 8.00844e-06 0)
(0.0325815 2.46178e-06 0)
(0.0322306 -2.80736e-06 0)
(0.0318831 -7.8014e-06 0)
(0.0315389 -1.25229e-05 0)
(0.0311977 -1.69745e-05 0)
(0.0308591 -2.1159e-05 0)
(0.0305231 -2.50792e-05 0)
(0.0301894 -2.8738e-05 0)
(0.0298577 -3.21384e-05 0)
(0.0295278 -3.52836e-05 0)
(0.0291996 -3.81766e-05 0)
(0.0288729 -4.08206e-05 0)
(0.0285474 -4.3219e-05 0)
(0.0282231 -4.53751e-05 0)
(0.0278996 -4.72921e-05 0)
(0.027577 -4.89736e-05 0)
(0.0272549 -5.04229e-05 0)
(0.0269334 -5.16435e-05 0)
(0.0266122 -5.26389e-05 0)
(0.0262913 -5.34127e-05 0)
(0.0259705 -5.39683e-05 0)
(0.0256497 -5.43093e-05 0)
(0.0253289 -5.44394e-05 0)
(0.0250079 -5.4362e-05 0)
(0.0246868 -5.40807e-05 0)
(0.0243654 -5.35992e-05 0)
(0.0240437 -5.29211e-05 0)
(0.0237216 -5.205e-05 0)
(0.0233992 -5.09894e-05 0)
(0.0230764 -4.97429e-05 0)
(0.0227531 -4.83141e-05 0)
(0.0224294 -4.67066e-05 0)
(0.0221054 -4.4924e-05 0)
(0.0217809 -4.29698e-05 0)
(0.021456 -4.08478e-05 0)
(0.0211307 -3.85615e-05 0)
(0.0208052 -3.61144e-05 0)
(0.0204793 -3.35103e-05 0)
(0.0201533 -3.07527e-05 0)
(0.019827 -2.78452e-05 0)
(0.0195007 -2.47916e-05 0)
(0.0191743 -2.15954e-05 0)
(0.0188479 -1.82603e-05 0)
(0.0185217 -1.479e-05 0)
(0.0181956 -1.11882e-05 0)
(0.0178698 -7.45862e-06 0)
(0.0175445 -3.60506e-06 0)
(0.0172196 3.68697e-07 0)
(0.0168952 4.45881e-06 0)
(0.0165716 8.6614e-06 0)
(0.0162487 1.29726e-05 0)
(0.0159268 1.73884e-05 0)
(0.0156058 2.19049e-05 0)
(0.015286 2.6518e-05 0)
(0.0149675 3.12235e-05 0)
(0.0146502 3.60175e-05 0)
(0.0143345 4.08956e-05 0)
(0.0140203 4.58536e-05 0)
(0.0137079 5.08872e-05 0)
(0.0133973 5.59921e-05 0)
(0.0130886 6.11637e-05 0)
(0.012782 6.63977e-05 0)
(0.0124775 7.16895e-05 0)
(0.0121753 7.70343e-05 0)
(0.0118755 8.24273e-05 0)
(0.0115782 8.78639e-05 0)
(0.0112835 9.33392e-05 0)
(0.0109914 9.88484e-05 0)
(0.0107022 0.000104387 0)
(0.0104158 0.000109949 0)
(0.0101325 0.000115529 0)
(0.00985213 0.000121124 0)
(0.00957495 0.000126727 0)
(0.00930098 0.000132333 0)
(0.0090303 0.000137937 0)
(0.00876296 0.000143533 0)
(0.00849904 0.000149117 0)
(0.00823858 0.000154682 0)
(0.00798163 0.000160224 0)
(0.00772824 0.000165737 0)
(0.00747845 0.000171214 0)
(0.00723228 0.000176652 0)
(0.00698976 0.000182043 0)
(0.00675091 0.000187384 0)
(0.00651573 0.000192667 0)
(0.00628424 0.000197888 0)
(0.00605642 0.000203041 0)
(0.0058323 0.00020812 0)
(0.00561181 0.000213121 0)
(0.00539499 0.000218036 0)
(0.00518174 0.000222863 0)
(0.00497211 0.000227594 0)
(0.00476596 0.000232225 0)
(0.00456335 0.00023675 0)
(0.00436411 0.000241165 0)
(0.00416831 0.000245463 0)
(0.00397573 0.000249642 0)
(0.00378646 0.000253694 0)
(0.00360025 0.000257617 0)
(0.0034172 0.000261404 0)
(0.00323702 0.000265053 0)
(0.00305981 0.000268557 0)
(0.00288526 0.000271915 0)
(0.00271349 0.000275119 0)
(0.00254415 0.000278169 0)
(0.00237736 0.000281058 0)
(0.00221276 0.000283787 0)
(0.00205045 0.000286345 0)
(0.00189008 0.000288739 0)
(0.00173174 0.000290954 0)
(0.00157505 0.000293003 0)
(0.0014201 0.000294862 0)
(0.00126654 0.000296556 0)
(0.0011144 0.000298051 0)
(0.0009634 0.000299384 0)
(0.000813407 0.000300506 0)
(0.000664397 0.000301474 0)
(0.000515877 0.000302226 0)
(0.000368266 0.00030281 0)
(0.000220502 0.000303249 0)
(7.36125e-05 0.000303335 0)
(0.301121 -1.51157 0)
(0.903253 -1.50739 0)
(1.50348 -1.50023 0)
(2.09981 -1.48902 0)
(2.69133 -1.47457 0)
(3.2762 -1.45642 0)
(3.85335 -1.43501 0)
(4.4212 -1.41017 0)
(4.97861 -1.38218 0)
(5.52418 -1.35105 0)
(6.05681 -1.317 0)
(6.57526 -1.2801 0)
(7.0785 -1.24061 0)
(7.56548 -1.19861 0)
(8.03526 -1.15436 0)
(8.48696 -1.108 0)
(8.91977 -1.05979 0)
(9.33301 -1.0099 0)
(9.72602 -0.958578 0)
(10.0983 -0.906022 0)
(10.4493 -0.852487 0)
(10.7789 -0.798178 0)
(11.0866 -0.743339 0)
(11.3723 -0.688181 0)
(11.6359 -0.632932 0)
(11.8775 -0.577799 0)
(12.0971 -0.522992 0)
(12.2949 -0.468703 0)
(12.4711 -0.415124 0)
(12.6261 -0.362426 0)
(12.7602 -0.310779 0)
(12.8739 -0.260328 0)
(12.9677 -0.211216 0)
(13.0421 -0.163563 0)
(13.0979 -0.117481 0)
(13.1356 -0.0730626 0)
(13.1558 -0.0303899 0)
(13.1595 0.0104728 0)
(13.1471 0.0494715 0)
(13.1197 0.0865693 0)
(13.0778 0.121739 0)
(13.0222 0.154968 0)
(12.9539 0.186252 0)
(12.8734 0.215601 0)
(12.7817 0.243031 0)
(12.6794 0.268569 0)
(12.5674 0.292247 0)
(12.4463 0.314107 0)
(12.3169 0.334194 0)
(12.1798 0.352562 0)
(12.0359 0.369263 0)
(11.8856 0.384359 0)
(11.7297 0.397911 0)
(11.5687 0.409982 0)
(11.4032 0.420638 0)
(11.2338 0.429946 0)
(11.061 0.43797 0)
(10.8853 0.444779 0)
(10.7071 0.450438 0)
(10.527 0.455012 0)
(10.3453 0.458564 0)
(10.1624 0.461158 0)
(9.97869 0.462854 0)
(9.79452 0.463711 0)
(9.61021 0.463787 0)
(9.42606 0.463136 0)
(9.24234 0.461811 0)
(9.0593 0.459864 0)
(8.87719 0.457343 0)
(8.69623 0.454295 0)
(8.5166 0.450763 0)
(8.3385 0.446791 0)
(8.16209 0.442417 0)
(7.98752 0.43768 0)
(7.81493 0.432615 0)
(7.64443 0.427257 0)
(7.47614 0.421637 0)
(7.31016 0.415785 0)
(7.14656 0.40973 0)
(6.98543 0.403498 0)
(6.82682 0.397114 0)
(6.6708 0.3906 0)
(6.5174 0.38398 0)
(6.36666 0.377272 0)
(6.21862 0.370496 0)
(6.07329 0.363669 0)
(5.93069 0.356807 0)
(5.79084 0.349926 0)
(5.65373 0.343039 0)
(5.51936 0.336158 0)
(5.38774 0.329296 0)
(5.25884 0.322463 0)
(5.13265 0.315669 0)
(5.00916 0.308923 0)
(4.88834 0.302233 0)
(4.77018 0.295605 0)
(4.65464 0.289048 0)
(4.54168 0.282565 0)
(4.4313 0.276164 0)
(4.32344 0.269848 0)
(4.21807 0.263621 0)
(4.11516 0.257487 0)
(4.01467 0.251449 0)
(3.91656 0.24551 0)
(3.82079 0.239671 0)
(3.72732 0.233935 0)
(3.6361 0.228303 0)
(3.5471 0.222775 0)
(3.46028 0.217353 0)
(3.37559 0.212038 0)
(3.29299 0.206829 0)
(3.21243 0.201727 0)
(3.13388 0.19673 0)
(3.0573 0.19184 0)
(2.98263 0.187055 0)
(2.90984 0.182375 0)
(2.83889 0.177798 0)
(2.76974 0.173325 0)
(2.70234 0.168952 0)
(2.63665 0.164681 0)
(2.57265 0.160508 0)
(2.51027 0.156433 0)
(2.4495 0.152454 0)
(2.39028 0.148571 0)
(2.33259 0.14478 0)
(2.27638 0.141081 0)
(2.22163 0.137472 0)
(2.16828 0.133952 0)
(2.11632 0.130518 0)
(2.06569 0.12717 0)
(2.01638 0.123904 0)
(1.96835 0.120721 0)
(1.92157 0.117617 0)
(1.876 0.114591 0)
(1.83161 0.111642 0)
(1.78837 0.108768 0)
(1.74626 0.105968 0)
(1.70525 0.103238 0)
(1.6653 0.100579 0)
(1.62639 0.0979879 0)
(1.58849 0.0954636 0)
(1.55158 0.0930043 0)
(1.51563 0.0906086 0)
(1.48061 0.0882749 0)
(1.44651 0.0860017 0)
(1.41329 0.0837876 0)
(1.38093 0.0816311 0)
(1.34942 0.0795307 0)
(1.31872 0.0774851 0)
(1.28882 0.0754929 0)
(1.2597 0.0735527 0)
(1.23133 0.0716632 0)
(1.20369 0.0698232 0)
(1.17677 0.0680314 0)
(1.15055 0.0662865 0)
(1.125 0.0645874 0)
(1.10011 0.0629328 0)
(1.07587 0.0613217 0)
(1.05225 0.0597529 0)
(1.02923 0.0582252 0)
(1.00681 0.0567377 0)
(0.984966 0.0552893 0)
(0.96368 0.053879 0)
(0.942938 0.0525057 0)
(0.922727 0.0511686 0)
(0.903032 0.0498666 0)
(0.883839 0.0485989 0)
(0.865134 0.0473646 0)
(0.846904 0.0461627 0)
(0.829136 0.0449924 0)
(0.811818 0.043853 0)
(0.794937 0.0427435 0)
(0.778482 0.0416632 0)
(0.762441 0.0406114 0)
(0.746803 0.0395873 0)
(0.731556 0.0385901 0)
(0.716691 0.0376192 0)
(0.702196 0.0366739 0)
(0.688062 0.0357534 0)
(0.674279 0.0348572 0)
(0.660837 0.0339846 0)
(0.647726 0.033135 0)
(0.634939 0.0323077 0)
(0.622466 0.0315023 0)
(0.610298 0.030718 0)
(0.598427 0.0299545 0)
(0.586846 0.029211 0)
(0.575545 0.0284872 0)
(0.564519 0.0277824 0)
(0.553758 0.0270962 0)
(0.543255 0.0264281 0)
(0.533005 0.0257777 0)
(0.522999 0.0251443 0)
(0.513232 0.0245277 0)
(0.503696 0.0239274 0)
(0.494385 0.0233429 0)
(0.485294 0.0227738 0)
(0.476416 0.0222198 0)
(0.467746 0.0216804 0)
(0.459277 0.0211552 0)
(0.451005 0.0206439 0)
(0.442924 0.0201462 0)
(0.435029 0.0196615 0)
(0.427315 0.0191897 0)
(0.419777 0.0187304 0)
(0.41241 0.0182832 0)
(0.40521 0.0178479 0)
(0.398172 0.017424 0)
(0.391292 0.0170114 0)