/*--------------------------------*- C++ -*----------------------------------*\
| =========                 |                                                 |
| \\      /  F ield         | OpenFOAM: The Open Source CFD Toolbox           |
|  \\    /   O peration     | Version:  v2012                                 |
|   \\  /    A nd           | Website:  www.openfoam.com                      |
|    \\/     M anipulation  |                                                 |
\*---------------------------------------------------------------------------*/
FoamFile
{
    version     2.0;
    format      ascii;
    class       volScalarField;
    location    "200";
    object      aU;
}
// * * * * * * * * * * * * * * * * * * * * * * * * * * * * * * * * * * * * * //

dimensions      [0 0 0 0 0 0 0];


internalField   nonuniform List<scalar> 
65536
(
4.56866e-05
6.4392e-05
4.77694e-05
5.0081e-05
5.09269e-05
6.35112e-05
6.12286e-05
7.54099e-05
7.64261e-05
8.69301e-05
8.95174e-05
9.73506e-05
0.000104207
0.000112134
0.000120958
0.000127693
0.000135404
0.000141285
0.000148887
0.000156053
0.000164284
0.000172179
0.000179874
0.000187427
0.000194342
0.000201516
0.000207859
0.000214482
0.000220084
0.000225873
0.000230593
0.000235328
0.000238923
0.000242283
0.000244465
0.000246269
0.000246982
0.000247256
0.000246536
0.000245351
0.000243293
0.000240807
0.000237597
0.000234038
0.000229921
0.000225569
0.000220837
0.000216005
0.000210973
0.000205985
0.000200973
0.00019614
0.000191441
0.000187041
0.000182902
0.000179152
0.000175752
0.000172792
0.000170233
0.000168123
0.000166416
0.000165133
0.000164221
0.000163674
0.000163435
0.000163477
0.000163743
0.000164193
0.000164774
0.000165439
0.000166142
0.000166835
0.000167483
0.000168041
0.000168485
0.000168777
0.000168907
0.000168844
0.000168589
0.00016812
0.000167448
0.000166559
0.000165473
0.000164179
0.000162703
0.000161039
0.000159217
0.000157234
0.000155119
0.000152873
0.000150522
0.000148069
0.000145539
0.000142935
0.000140278
0.000137572
0.000134837
0.000132074
0.0001293
0.000126517
0.000123739
0.000120968
0.000118214
0.000115479
0.000112771
0.000110092
0.000107448
0.00010484
0.000102272
9.97462e-05
9.72634e-05
9.48273e-05
9.24364e-05
9.00947e-05
8.77994e-05
8.55548e-05
8.33571e-05
8.12106e-05
7.91108e-05
7.70621e-05
7.50593e-05
7.31071e-05
7.11997e-05
6.93417e-05
6.75273e-05
6.5761e-05
6.40367e-05
6.23589e-05
6.07216e-05
5.9129e-05
5.75753e-05
5.60644e-05
5.45908e-05
5.3158e-05
5.17609e-05
5.04027e-05
4.90785e-05
4.77913e-05
4.65365e-05
4.53168e-05
4.4128e-05
4.29725e-05
4.18463e-05
4.07516e-05
3.96849e-05
3.86479e-05
3.76374e-05
3.66551e-05
3.5698e-05
3.47674e-05
3.38607e-05
3.29792e-05
3.21203e-05
3.12851e-05
3.04715e-05
2.96801e-05
2.89093e-05
2.81594e-05
2.7429e-05
2.67185e-05
2.60263e-05
2.53529e-05
2.46969e-05
2.40586e-05
2.34369e-05
2.28318e-05
2.22425e-05
2.16689e-05
2.11101e-05
2.05663e-05
2.00365e-05
1.95208e-05
1.90185e-05
1.85294e-05
1.8053e-05
1.75892e-05
1.71373e-05
1.66974e-05
1.62688e-05
1.58515e-05
1.54449e-05
1.5049e-05
1.46633e-05
1.42877e-05
1.39218e-05
1.35654e-05
1.32182e-05
1.288e-05
1.25505e-05
1.22296e-05
1.1917e-05
1.16125e-05
1.13158e-05
1.10268e-05
1.07452e-05
1.04709e-05
1.02037e-05
9.9434e-06
9.6898e-06
9.44274e-06
9.20205e-06
8.96757e-06
8.73913e-06
8.51659e-06
8.29978e-06
8.08857e-06
7.8828e-06
7.68234e-06
7.48705e-06
7.2968e-06
7.11146e-06
6.9309e-06
6.75501e-06
6.58365e-06
6.41673e-06
6.25411e-06
6.0957e-06
5.94138e-06
5.79105e-06
5.64462e-06
5.50197e-06
5.36301e-06
5.22765e-06
5.09579e-06
4.96735e-06
4.84224e-06
4.72036e-06
4.60165e-06
4.48601e-06
4.37337e-06
4.26365e-06
4.15678e-06
4.05267e-06
3.95127e-06
3.85249e-06
3.75628e-06
3.66256e-06
3.57127e-06
3.48234e-06
3.39571e-06
3.31133e-06
3.22913e-06
3.14906e-06
3.07106e-06
2.99507e-06
2.92104e-06
2.84893e-06
2.77867e-06
2.71022e-06
2.64353e-06
2.57855e-06
2.51524e-06
2.45355e-06
2.39344e-06
2.33487e-06
2.27779e-06
2.22216e-06
2.16795e-06
2.11511e-06
2.06361e-06
2.01341e-06
1.96448e-06
1.91677e-06
1.87027e-06
1.82492e-06
1.78071e-06
1.7376e-06
1.69556e-06
1.65456e-06
1.61457e-06
1.57557e-06
1.53752e-06
1.5004e-06
1.46419e-06
1.42886e-06
1.39438e-06
1.36073e-06
1.32789e-06
1.29584e-06
1.26455e-06
1.234e-06
1.20418e-06
1.17506e-06
1.14663e-06
1.11885e-06
1.09173e-06
1.06523e-06
1.03935e-06
1.01406e-06
9.89351e-07
9.65204e-07
9.41607e-07
9.18542e-07
8.95998e-07
8.73959e-07
8.52413e-07
8.31346e-07
8.10747e-07
7.90603e-07
7.70904e-07
7.51637e-07
7.32791e-07
7.14358e-07
6.96325e-07
6.78684e-07
6.61425e-07
6.44538e-07
6.28017e-07
6.1185e-07
5.96032e-07
5.80553e-07
5.65407e-07
5.50586e-07
5.36083e-07
5.21891e-07
5.08005e-07
4.94417e-07
4.81123e-07
4.68115e-07
4.5539e-07
4.42942e-07
4.30766e-07
4.18857e-07
4.0721e-07
3.95822e-07
3.84687e-07
3.73803e-07
3.63164e-07
3.52768e-07
3.42611e-07
3.3269e-07
3.23002e-07
3.13542e-07
3.04309e-07
2.95299e-07
2.8651e-07
2.77939e-07
2.69584e-07
2.61441e-07
2.53509e-07
2.45785e-07
2.38267e-07
2.30953e-07
2.2384e-07
2.16927e-07
2.10211e-07
2.0369e-07
1.97362e-07
1.91225e-07
1.85278e-07
1.79517e-07
1.73942e-07
1.68549e-07
1.63338e-07
1.58305e-07
1.53449e-07
1.48768e-07
1.44259e-07
1.39922e-07
1.35753e-07
1.31751e-07
1.27913e-07
1.24237e-07
1.2072e-07
1.17359e-07
1.14152e-07
1.11096e-07
1.08189e-07
1.05428e-07
1.02809e-07
1.00331e-07
9.79895e-08
9.57826e-08
9.37068e-08
9.17586e-08
8.99343e-08
8.82324e-08
8.66515e-08
8.51882e-08
8.38393e-08
8.26016e-08
8.14719e-08
8.0447e-08
7.95237e-08
7.86989e-08
7.79694e-08
7.73319e-08
7.67835e-08
7.63206e-08
7.59406e-08
7.56399e-08
7.54159e-08
7.5265e-08
7.51847e-08
7.51713e-08
7.52226e-08
7.53345e-08
7.55054e-08
7.57309e-08
7.60097e-08
7.6337e-08
7.67122e-08
7.713e-08
7.75906e-08
7.80876e-08
7.86225e-08
7.91879e-08
7.97863e-08
8.04091e-08
8.10607e-08
8.17306e-08
8.24251e-08
8.31315e-08
8.38593e-08
8.45932e-08
8.53467e-08
8.61006e-08
8.68726e-08
8.76412e-08
8.84282e-08
8.9205e-08
8.99988e-08
9.07748e-08
9.15666e-08
9.23327e-08
9.31144e-08
9.38625e-08
9.46265e-08
9.5349e-08
9.60883e-08
9.67784e-08
9.74861e-08
9.8137e-08
9.88065e-08
9.94121e-08
1.00036e-07
1.0059e-07
1.01161e-07
1.01653e-07
1.02158e-07
1.02589e-07
1.03034e-07
1.03407e-07
1.03782e-07
1.04091e-07
1.04386e-07
1.04627e-07
1.04833e-07
1.05006e-07
1.05115e-07
1.05219e-07
1.05219e-07
1.05252e-07
1.05129e-07
1.05086e-07
1.04825e-07
1.04723e-07
1.04327e-07
1.04169e-07
1.03622e-07
1.03413e-07
1.027e-07
1.02443e-07
1.01552e-07
1.01253e-07
1.00172e-07
9.98357e-08
9.8555e-08
9.8188e-08
9.66991e-08
9.63063e-08
9.46038e-08
9.41888e-08
9.22704e-08
9.18351e-08
8.97022e-08
8.92464e-08
8.69043e-08
8.64259e-08
8.38836e-08
8.33788e-08
8.06493e-08
8.01128e-08
7.7213e-08
7.66375e-08
7.35898e-08
7.29647e-08
6.97991e-08
6.91075e-08
6.58664e-08
6.50808e-08
6.18233e-08
6.09037e-08
5.77056e-08
5.66064e-08
5.35463e-08
5.22423e-08
4.93632e-08
4.79041e-08
4.51439e-08
4.373e-08
4.08385e-08
3.98672e-08
3.63723e-08
3.63327e-08
3.1614e-08
3.26817e-08
2.58576e-08
2.75235e-08
1.5582e-08
2.66098e-08
2.3069e-08
2.21719e-05
7.91483e-05
5.20776e-05
6.28662e-05
3.91257e-05
5.46572e-05
5.10387e-05
4.66234e-05
5.20569e-05
4.90944e-05
5.31313e-05
4.8577e-05
4.91328e-05
4.65524e-05
4.69375e-05
4.70039e-05
4.70446e-05
4.66129e-05
4.46024e-05
4.28288e-05
4.03006e-05
3.86163e-05
3.65782e-05
3.48322e-05
3.26529e-05
3.04059e-05
2.80489e-05
2.55939e-05
2.32575e-05
2.07124e-05
1.84234e-05
1.59505e-05
1.39332e-05
1.181e-05
1.02717e-05
8.74915e-06
8.05366e-06
7.59891e-06
7.96116e-06
8.46965e-06
9.46932e-06
1.04456e-05
1.16158e-05
1.2676e-05
1.38179e-05
1.4838e-05
1.58953e-05
1.68462e-05
1.78152e-05
1.87058e-05
1.96022e-05
2.0443e-05
2.1284e-05
2.20777e-05
2.28695e-05
2.36145e-05
2.4343e-05
2.50285e-05
2.56811e-05
2.62745e-05
2.68293e-05
2.7317e-05
2.77447e-05
2.8092e-05
2.83738e-05
2.85694e-05
2.86917e-05
2.87224e-05
2.86786e-05
2.85445e-05
2.83395e-05
2.80497e-05
2.76967e-05
2.72678e-05
2.67866e-05
2.62412e-05
2.56565e-05
2.50209e-05
2.43594e-05
2.36601e-05
2.29478e-05
2.22101e-05
2.14711e-05
2.07178e-05
1.99728e-05
1.92228e-05
1.84888e-05
1.77573e-05
1.70473e-05
1.63456e-05
1.5669e-05
1.5005e-05
1.43682e-05
1.37466e-05
1.31532e-05
1.25767e-05
1.20281e-05
1.14974e-05
1.09934e-05
1.05077e-05
1.00472e-05
9.60466e-06
9.18552e-06
8.78384e-06
8.40348e-06
8.03983e-06
7.69539e-06
7.36677e-06
7.0553e-06
6.75867e-06
6.47722e-06
6.2096e-06
5.95534e-06
5.7139e-06
5.48413e-06
5.26621e-06
5.05846e-06
4.8616e-06
4.67357e-06
4.49552e-06
4.32513e-06
4.16387e-06
4.00925e-06
3.86294e-06
3.7224e-06
3.58942e-06
3.46145e-06
3.34035e-06
3.22362e-06
3.1131e-06
3.00641e-06
2.90534e-06
2.80764e-06
2.71501e-06
2.62535e-06
2.54028e-06
2.45785e-06
2.37955e-06
2.30361e-06
2.2314e-06
2.1613e-06
2.09456e-06
2.02973e-06
1.96793e-06
1.90787e-06
1.85053e-06
1.79479e-06
1.7415e-06
1.68967e-06
1.64005e-06
1.59179e-06
1.54552e-06
1.5005e-06
1.45729e-06
1.41524e-06
1.37482e-06
1.33549e-06
1.29764e-06
1.2608e-06
1.22531e-06
1.19076e-06
1.15745e-06
1.12502e-06
1.09371e-06
1.06324e-06
1.03379e-06
1.00513e-06
9.77412e-07
9.50435e-07
9.24322e-07
8.9891e-07
8.74295e-07
8.50343e-07
8.27129e-07
8.04541e-07
7.82638e-07
7.61327e-07
7.40654e-07
7.20542e-07
7.01025e-07
6.8204e-07
6.63612e-07
6.45688e-07
6.28285e-07
6.11362e-07
5.9493e-07
5.78952e-07
5.63436e-07
5.48352e-07
5.33704e-07
5.19467e-07
5.05641e-07
4.92205e-07
4.79159e-07
4.66484e-07
4.54177e-07
4.42223e-07
4.30618e-07
4.19348e-07
4.08408e-07
3.97787e-07
3.87479e-07
3.77472e-07
3.67762e-07
3.58339e-07
3.49196e-07
3.40324e-07
3.31718e-07
3.23368e-07
3.15269e-07
3.07412e-07
2.99792e-07
2.924e-07
2.85232e-07
2.78279e-07
2.71536e-07
2.64996e-07
2.58654e-07
2.52502e-07
2.46535e-07
2.40748e-07
2.35134e-07
2.29689e-07
2.24406e-07
2.19281e-07
2.14308e-07
2.09483e-07
2.04801e-07
2.00257e-07
1.95847e-07
1.91566e-07
1.8741e-07
1.83376e-07
1.79458e-07
1.75654e-07
1.7196e-07
1.68373e-07
1.64888e-07
1.61504e-07
1.58216e-07
1.55021e-07
1.51918e-07
1.48902e-07
1.45972e-07
1.43124e-07
1.40356e-07
1.37665e-07
1.3505e-07
1.32507e-07
1.30034e-07
1.27629e-07
1.25289e-07
1.23013e-07
1.20797e-07
1.1864e-07
1.16539e-07
1.14493e-07
1.12498e-07
1.10553e-07
1.08656e-07
1.06804e-07
1.04994e-07
1.03226e-07
1.01496e-07
9.98017e-08
9.8142e-08
9.65141e-08
9.49159e-08
9.33451e-08
9.17994e-08
9.02769e-08
8.87754e-08
8.72929e-08
8.58273e-08
8.43768e-08
8.29394e-08
8.15133e-08
8.00966e-08
7.86878e-08
7.72853e-08
7.58874e-08
7.44926e-08
7.30996e-08
7.17071e-08
7.0314e-08
6.89191e-08
6.75216e-08
6.61205e-08
6.47152e-08
6.33049e-08
6.18892e-08
6.04678e-08
5.90402e-08
5.7606e-08
5.61646e-08
5.47161e-08
5.32619e-08
5.18033e-08
5.03401e-08
4.88729e-08
4.74026e-08
4.59301e-08
4.44565e-08
4.29833e-08
4.15122e-08
4.00452e-08
3.85844e-08
3.71324e-08
3.5692e-08
3.42666e-08
3.28596e-08
3.14754e-08
3.01185e-08
2.87943e-08
2.75087e-08
2.62683e-08
2.50807e-08
2.3954e-08
2.28974e-08
2.19204e-08
2.10334e-08
2.02468e-08
1.95707e-08
1.90146e-08
1.85858e-08
1.82896e-08
1.8128e-08
1.80997e-08
1.81997e-08
1.84208e-08
1.87499e-08
1.91738e-08
1.9682e-08
2.0261e-08
2.08977e-08
2.15795e-08
2.22948e-08
2.30332e-08
2.37852e-08
2.45424e-08
2.52972e-08
2.6043e-08
2.67739e-08
2.74845e-08
2.81702e-08
2.88268e-08
2.94506e-08
3.00382e-08
3.05865e-08
3.10925e-08
3.15537e-08
3.19677e-08
3.23328e-08
3.26468e-08
3.29087e-08
3.31163e-08
3.32702e-08
3.33711e-08
3.34164e-08
3.34058e-08
3.33395e-08
3.3217e-08
3.3038e-08
3.28028e-08
3.25117e-08
3.21651e-08
3.17639e-08
3.13087e-08
3.08006e-08
3.0241e-08
2.96312e-08
2.89733e-08
2.82689e-08
2.75202e-08
2.67294e-08
2.59e-08
2.50367e-08
2.41429e-08
2.32218e-08
2.22783e-08
2.13186e-08
2.035e-08
1.93813e-08
1.8423e-08
1.74877e-08
1.65905e-08
1.57495e-08
1.49856e-08
1.43232e-08
1.37882e-08
1.34074e-08
1.32047e-08
1.31985e-08
1.33981e-08
1.38027e-08
1.44024e-08
1.51796e-08
1.61144e-08
1.71842e-08
1.83697e-08
1.9651e-08
2.1014e-08
2.24428e-08
2.39286e-08
2.54588e-08
2.7029e-08
2.86281e-08
3.02554e-08
3.19002e-08
3.35647e-08
3.52373e-08
3.69238e-08
3.86109e-08
4.03078e-08
4.19981e-08
4.36938e-08
4.53733e-08
4.70539e-08
4.87136e-08
5.03746e-08
5.20076e-08
5.36405e-08
5.52388e-08
5.68377e-08
5.8396e-08
5.99564e-08
6.147e-08
6.29878e-08
6.44525e-08
6.59236e-08
6.73349e-08
6.87549e-08
7.01088e-08
7.14734e-08
7.27661e-08
7.40711e-08
7.5299e-08
7.65396e-08
7.76994e-08
7.88689e-08
7.99561e-08
8.10443e-08
8.20522e-08
8.30546e-08
8.39843e-08
8.48956e-08
8.57484e-08
8.65635e-08
8.73412e-08
8.80529e-08
8.8756e-08
8.93551e-08
8.99855e-08
9.0464e-08
9.10214e-08
9.13606e-08
9.18486e-08
9.20442e-08
9.2468e-08
9.25086e-08
9.28746e-08
9.27517e-08
9.30673e-08
9.27721e-08
9.30447e-08
9.25697e-08
9.28063e-08
9.21453e-08
9.23525e-08
9.15018e-08
9.1685e-08
9.06437e-08
9.08068e-08
8.95777e-08
8.97227e-08
8.83124e-08
8.84396e-08
8.68592e-08
8.69668e-08
8.52315e-08
8.53162e-08
8.34455e-08
8.35027e-08
8.15204e-08
8.15443e-08
7.9479e-08
7.94615e-08
7.73485e-08
7.7277e-08
7.5161e-08
7.50159e-08
7.29535e-08
7.27071e-08
7.07646e-08
7.03875e-08
6.86294e-08
6.81083e-08
6.65715e-08
6.59382e-08
6.45994e-08
6.3951e-08
6.27194e-08
6.21707e-08
6.09897e-08
6.04308e-08
5.96466e-08
5.80535e-08
5.93017e-08
5.31512e-08
6.04232e-08
3.84747e-08
8.76999e-08
3.10805e-05
6.15166e-05
5.05512e-05
6.53609e-05
2.3419e-05
6.43386e-05
4.78619e-05
4.67374e-05
5.30955e-05
5.25747e-05
5.28748e-05
4.33571e-05
4.2962e-05
3.85315e-05
4.07458e-05
3.97278e-05
3.94996e-05
3.72217e-05
3.40028e-05
3.17366e-05
2.91729e-05
2.83963e-05
2.69245e-05
2.58774e-05
2.35879e-05
2.12542e-05
1.83409e-05
1.56634e-05
1.27783e-05
1.00874e-05
7.28825e-06
4.87353e-06
2.54802e-06
1.3638e-06
2.08396e-06
3.80926e-06
5.50275e-06
7.22435e-06
8.84033e-06
1.03649e-05
1.17049e-05
1.29851e-05
1.41309e-05
1.52149e-05
1.61381e-05
1.70263e-05
1.77633e-05
1.8478e-05
1.90612e-05
1.96232e-05
2.00841e-05
2.05212e-05
2.08726e-05
2.12093e-05
2.14584e-05
2.16956e-05
2.18578e-05
2.19844e-05
2.20399e-05
2.20725e-05
2.20162e-05
2.19201e-05
2.17523e-05
2.15496e-05
2.12665e-05
2.09413e-05
2.05441e-05
2.01117e-05
1.9616e-05
1.90918e-05
1.85176e-05
1.79253e-05
1.72964e-05
1.66601e-05
1.60017e-05
1.5347e-05
1.46836e-05
1.40342e-05
1.3388e-05
1.27641e-05
1.21526e-05
1.1569e-05
1.10039e-05
1.04695e-05
9.957e-06
9.47565e-06
9.01753e-06
8.58921e-06
8.18377e-06
7.80564e-06
7.44908e-06
7.11671e-06
6.80407e-06
6.5123e-06
6.23829e-06
5.98191e-06
5.74135e-06
5.51544e-06
5.30361e-06
5.10376e-06
4.91645e-06
4.73883e-06
4.57241e-06
4.41373e-06
4.26511e-06
4.1226e-06
3.98914e-06
3.86049e-06
3.74e-06
3.62325e-06
3.51388e-06
3.40742e-06
3.30762e-06
3.21009e-06
3.11858e-06
3.02885e-06
2.94455e-06
2.86166e-06
2.78366e-06
2.70682e-06
2.63437e-06
2.5629e-06
2.49536e-06
2.4287e-06
2.36555e-06
2.3032e-06
2.24398e-06
2.18554e-06
2.12988e-06
2.07497e-06
2.02255e-06
1.97088e-06
1.92142e-06
1.87271e-06
1.82597e-06
1.77999e-06
1.73577e-06
1.69232e-06
1.65042e-06
1.60931e-06
1.56959e-06
1.53066e-06
1.49298e-06
1.45607e-06
1.42029e-06
1.38528e-06
1.3513e-06
1.31807e-06
1.28577e-06
1.25421e-06
1.2235e-06
1.19351e-06
1.16431e-06
1.1358e-06
1.10801e-06
1.0809e-06
1.05446e-06
1.02867e-06
1.0035e-06
9.7896e-07
9.55007e-07
9.31646e-07
9.08842e-07
8.86602e-07
8.6489e-07
8.43717e-07
8.23043e-07
8.02883e-07
7.83197e-07
7.64001e-07
7.45258e-07
7.26981e-07
7.09135e-07
6.91734e-07
6.74746e-07
6.58181e-07
6.42011e-07
6.26245e-07
6.10857e-07
5.95855e-07
5.81215e-07
5.66943e-07
5.5302e-07
5.39448e-07
5.2621e-07
5.13308e-07
5.00727e-07
4.88466e-07
4.76514e-07
4.64868e-07
4.53518e-07
4.42462e-07
4.31689e-07
4.21197e-07
4.10976e-07
4.01024e-07
3.91332e-07
3.81896e-07
3.72709e-07
3.63768e-07
3.55063e-07
3.46593e-07
3.38349e-07
3.30328e-07
3.22523e-07
3.14929e-07
3.07542e-07
3.00355e-07
2.93363e-07
2.86562e-07
2.79946e-07
2.73511e-07
2.67251e-07
2.61162e-07
2.55238e-07
2.49476e-07
2.4387e-07
2.38416e-07
2.3311e-07
2.27947e-07
2.22922e-07
2.18033e-07
2.13275e-07
2.08643e-07
2.04135e-07
1.99747e-07
1.95475e-07
1.91316e-07
1.87266e-07
1.83323e-07
1.79484e-07
1.75745e-07
1.72104e-07
1.68559e-07
1.65106e-07
1.61745e-07
1.58471e-07
1.55284e-07
1.52181e-07
1.4916e-07
1.46219e-07
1.43357e-07
1.40571e-07
1.37861e-07
1.35224e-07
1.32659e-07
1.30164e-07
1.27737e-07
1.25378e-07
1.23084e-07
1.20854e-07
1.18686e-07
1.1658e-07
1.14532e-07
1.12542e-07
1.10607e-07
1.08727e-07
1.06899e-07
1.05121e-07
1.03392e-07
1.0171e-07
1.00072e-07
9.84766e-08
9.69216e-08
9.5405e-08
9.39245e-08
9.24781e-08
9.10633e-08
8.96779e-08
8.83198e-08
8.69867e-08
8.56766e-08
8.43872e-08
8.31163e-08
8.18618e-08
8.06215e-08
7.93934e-08
7.81756e-08
7.69663e-08
7.57634e-08
7.45651e-08
7.33699e-08
7.21763e-08
7.09827e-08
6.97878e-08
6.85903e-08
6.73892e-08
6.61835e-08
6.49721e-08
6.37545e-08
6.25302e-08
6.12985e-08
6.00588e-08
5.8811e-08
5.75547e-08
5.62909e-08
5.50211e-08
5.37455e-08
5.24637e-08
5.11763e-08
4.98847e-08
4.85902e-08
4.72944e-08
4.59992e-08
4.47063e-08
4.34183e-08
4.21375e-08
4.08668e-08
3.96093e-08
3.83685e-08
3.71482e-08
3.59525e-08
3.47861e-08
3.36539e-08
3.25612e-08
3.15139e-08
3.05178e-08
2.95794e-08
2.87051e-08
2.79015e-08
2.71751e-08
2.65322e-08
2.59781e-08
2.55177e-08
2.51546e-08
2.48909e-08
2.47275e-08
2.46634e-08
2.4696e-08
2.48226e-08
2.50363e-08
2.53282e-08
2.56924e-08
2.61212e-08
2.66056e-08
2.71371e-08
2.77071e-08
2.83076e-08
2.89306e-08
2.95688e-08
3.02154e-08
3.08641e-08
3.15089e-08
3.21444e-08
3.27658e-08
3.33686e-08
3.39488e-08
3.45026e-08
3.50269e-08
3.55187e-08
3.59751e-08
3.63936e-08
3.67721e-08
3.71087e-08
3.74018e-08
3.76494e-08
3.78496e-08
3.80036e-08
3.81101e-08
3.8167e-08
3.81756e-08
3.81361e-08
3.80482e-08
3.79124e-08
3.77291e-08
3.74991e-08
3.72235e-08
3.69035e-08
3.65407e-08
3.61367e-08
3.56936e-08
3.52138e-08
3.46999e-08
3.41548e-08
3.35814e-08
3.2983e-08
3.23654e-08
3.17354e-08
3.10979e-08
3.0458e-08
2.98217e-08
2.91957e-08
2.85876e-08
2.80052e-08
2.74573e-08
2.69529e-08
2.65015e-08
2.61126e-08
2.5796e-08
2.55606e-08
2.54152e-08
2.53672e-08
2.54226e-08
2.5586e-08
2.58598e-08
2.62449e-08
2.67398e-08
2.7342e-08
2.80466e-08
2.8849e-08
2.97416e-08
3.07192e-08
3.1773e-08
3.2898e-08
3.40846e-08
3.53291e-08
3.66214e-08
3.79598e-08
3.93333e-08
4.07425e-08
4.21754e-08
4.36356e-08
4.51091e-08
4.66027e-08
4.81e-08
4.96117e-08
5.11203e-08
5.26431e-08
5.41555e-08
5.56765e-08
5.71772e-08
5.86845e-08
6.01641e-08
6.16495e-08
6.30995e-08
6.45555e-08
6.59683e-08
6.73878e-08
6.87563e-08
7.01327e-08
7.14505e-08
7.27777e-08
7.40391e-08
7.53113e-08
7.65111e-08
7.77232e-08
7.88578e-08
8.00067e-08
8.10728e-08
8.2151e-08
8.31515e-08
8.41524e-08
8.5071e-08
8.5984e-08
8.68226e-08
8.76413e-08
8.83983e-08
8.91146e-08
8.97901e-08
9.03962e-08
9.0992e-08
9.14805e-08
9.20009e-08
9.23656e-08
9.28161e-08
9.30464e-08
9.34283e-08
9.3509e-08
9.38237e-08
9.37422e-08
9.3995e-08
9.3742e-08
9.3941e-08
9.35067e-08
9.3659e-08
9.30344e-08
9.31471e-08
9.23244e-08
9.24039e-08
9.13779e-08
9.14296e-08
9.01976e-08
9.02255e-08
8.87886e-08
8.87948e-08
8.71581e-08
8.71428e-08
8.53157e-08
8.52771e-08
8.32734e-08
8.32082e-08
8.10463e-08
8.09497e-08
7.86522e-08
7.85184e-08
7.61135e-08
7.59339e-08
7.34576e-08
7.32189e-08
7.07184e-08
7.0399e-08
6.79361e-08
6.75053e-08
6.5155e-08
6.45794e-08
6.24174e-08
6.16825e-08
5.97544e-08
5.89039e-08
5.71817e-08
5.63588e-08
5.47181e-08
5.41501e-08
5.2469e-08
5.226e-08
5.08439e-08
5.02714e-08
5.10155e-08
4.64029e-08
5.6231e-08
3.72018e-08
5.93502e-08
4.49712e-05
0.000101528
0.000134743
0.000109837
0.000161317
0.000242901
0.000223988
0.000267784
0.000291481
0.00030754
0.000300407
0.000294123
0.000296448
0.000296693
0.000295262
0.000276596
0.000249943
0.000213798
0.000180212
0.000148149
0.000119614
9.24708e-05
6.67897e-05
4.54129e-05
2.91308e-05
2.28261e-05
2.29467e-05
2.5296e-05
2.64575e-05
2.55508e-05
2.34621e-05
2.01675e-05
1.72345e-05
1.42899e-05
1.23117e-05
1.05573e-05
9.9658e-06
9.65796e-06
1.00968e-05
1.04674e-05
1.1417e-05
1.23079e-05
1.34176e-05
1.43594e-05
1.54616e-05
1.63825e-05
1.73876e-05
1.82404e-05
1.91323e-05
1.99123e-05
2.06926e-05
2.13955e-05
2.2087e-05
2.26935e-05
2.33031e-05
2.38286e-05
2.43129e-05
2.47499e-05
2.51357e-05
2.54236e-05
2.56789e-05
2.58647e-05
2.59677e-05
2.59699e-05
2.59077e-05
2.57653e-05
2.5551e-05
2.5251e-05
2.48835e-05
2.44422e-05
2.39423e-05
2.33809e-05
2.27741e-05
2.21209e-05
2.14365e-05
2.07216e-05
1.99914e-05
1.92463e-05
1.84996e-05
1.7751e-05
1.70123e-05
1.6282e-05
1.55709e-05
1.48756e-05
1.42059e-05
1.35569e-05
1.29371e-05
1.23403e-05
1.17744e-05
1.1232e-05
1.07204e-05
1.02314e-05
9.77221e-06
9.33386e-06
8.92353e-06
8.53189e-06
8.16611e-06
7.8167e-06
7.49086e-06
7.17911e-06
6.88865e-06
6.61017e-06
6.35078e-06
6.10149e-06
5.86926e-06
5.64548e-06
5.43692e-06
5.23541e-06
5.04746e-06
4.86539e-06
4.69539e-06
4.53034e-06
4.37601e-06
4.22586e-06
4.08526e-06
3.94822e-06
3.81969e-06
3.69423e-06
3.57633e-06
3.46114e-06
3.35268e-06
3.24662e-06
3.14655e-06
3.04866e-06
2.95611e-06
2.86555e-06
2.77975e-06
2.69578e-06
2.61607e-06
2.53809e-06
2.46389e-06
2.39132e-06
2.32215e-06
2.25451e-06
2.18991e-06
2.12679e-06
2.06638e-06
2.00738e-06
1.95083e-06
1.89562e-06
1.84261e-06
1.79089e-06
1.74114e-06
1.69264e-06
1.64593e-06
1.6004e-06
1.55649e-06
1.51371e-06
1.4724e-06
1.43218e-06
1.39329e-06
1.35544e-06
1.31881e-06
1.28316e-06
1.24863e-06
1.21504e-06
1.18247e-06
1.15079e-06
1.12007e-06
1.09018e-06
1.06117e-06
1.03295e-06
1.00555e-06
9.78897e-07
9.53008e-07
9.27822e-07
9.03349e-07
8.79541e-07
8.56399e-07
8.33884e-07
8.11993e-07
7.90695e-07
7.69982e-07
7.49829e-07
7.30226e-07
7.11152e-07
6.92597e-07
6.74541e-07
6.56974e-07
6.39879e-07
6.23245e-07
6.07058e-07
5.91308e-07
5.7598e-07
5.61065e-07
5.4655e-07
5.32426e-07
5.18681e-07
5.05306e-07
4.92291e-07
4.79626e-07
4.67302e-07
4.55311e-07
4.43642e-07
4.32289e-07
4.21241e-07
4.10493e-07
4.00035e-07
3.8986e-07
3.7996e-07
3.70328e-07
3.60956e-07
3.51839e-07
3.42968e-07
3.34337e-07
3.25939e-07
3.17769e-07
3.09819e-07
3.02084e-07
2.94557e-07
2.87233e-07
2.80105e-07
2.73168e-07
2.66417e-07
2.59846e-07
2.53451e-07
2.47225e-07
2.41163e-07
2.35263e-07
2.29517e-07
2.23923e-07
2.18475e-07
2.1317e-07
2.08004e-07
2.02972e-07
1.98072e-07
1.93298e-07
1.88649e-07
1.84121e-07
1.79711e-07
1.75415e-07
1.71231e-07
1.67157e-07
1.6319e-07
1.59328e-07
1.55568e-07
1.51908e-07
1.48347e-07
1.44882e-07
1.41512e-07
1.38236e-07
1.3505e-07
1.31955e-07
1.28948e-07
1.26028e-07
1.23194e-07
1.20444e-07
1.17777e-07
1.15192e-07
1.12686e-07
1.1026e-07
1.0791e-07
1.05636e-07
1.03436e-07
1.01309e-07
9.92527e-08
9.72653e-08
9.53449e-08
9.34897e-08
9.16975e-08
8.9966e-08
8.82932e-08
8.66766e-08
8.51137e-08
8.36021e-08
8.21391e-08
8.0722e-08
7.93482e-08
7.80148e-08
7.67192e-08
7.54585e-08
7.42299e-08
7.30305e-08
7.18575e-08
7.07082e-08
6.95799e-08
6.84698e-08
6.73755e-08
6.62943e-08
6.52238e-08
6.41617e-08
6.3106e-08
6.20544e-08
6.10051e-08
5.99562e-08
5.89059e-08
5.7853e-08
5.67959e-08
5.57335e-08
5.46647e-08
5.35888e-08
5.25049e-08
5.14125e-08
5.03114e-08
4.92015e-08
4.80832e-08
4.69565e-08
4.58218e-08
4.46787e-08
4.35279e-08
4.23713e-08
4.12101e-08
4.00457e-08
3.88799e-08
3.77149e-08
3.65529e-08
3.53969e-08
3.42498e-08
3.3115e-08
3.19964e-08
3.08982e-08
2.98251e-08
2.87824e-08
2.77756e-08
2.68109e-08
2.58949e-08
2.50344e-08
2.42367e-08
2.35093e-08
2.28593e-08
2.22938e-08
2.1819e-08
2.144e-08
2.11608e-08
2.09833e-08
2.09077e-08
2.09321e-08
2.10529e-08
2.1264e-08
2.15588e-08
2.19298e-08
2.23679e-08
2.28634e-08
2.34069e-08
2.39894e-08
2.4602e-08
2.52367e-08
2.58855e-08
2.65412e-08
2.71973e-08
2.78475e-08
2.84862e-08
2.91083e-08
2.97091e-08
3.02841e-08
3.08293e-08
3.13415e-08
3.18172e-08
3.22536e-08
3.26483e-08
3.29986e-08
3.33028e-08
3.35584e-08
3.37641e-08
3.39178e-08
3.40187e-08
3.40639e-08
3.40523e-08
3.3985e-08
3.38596e-08
3.36755e-08
3.34326e-08
3.31305e-08
3.2769e-08
3.23479e-08
3.18674e-08
3.13276e-08
3.07288e-08
3.00717e-08
2.93567e-08
2.85846e-08
2.77563e-08
2.68729e-08
2.59357e-08
2.4946e-08
2.39046e-08
2.28128e-08
2.16737e-08
2.04907e-08
1.92664e-08
1.80039e-08
1.67066e-08
1.53793e-08
1.40277e-08
1.26603e-08
1.12884e-08
9.92979e-09
8.61206e-09
7.38164e-09
6.3165e-09
5.54258e-09
5.22052e-09
5.45693e-09
6.20892e-09
7.33476e-09
8.70277e-09
1.02243e-08
1.18477e-08
1.35399e-08
1.52828e-08
1.70614e-08
1.88688e-08
2.06956e-08
2.25398e-08
2.43935e-08
2.62572e-08
2.8123e-08
2.99936e-08
3.18601e-08
3.37277e-08
3.55862e-08
3.74428e-08
3.92851e-08
4.11235e-08
4.29426e-08
4.47563e-08
4.65466e-08
4.83305e-08
5.00821e-08
5.18243e-08
5.35299e-08
5.52281e-08
5.68847e-08
5.85352e-08
6.01379e-08
6.17355e-08
6.32789e-08
6.48188e-08
6.62976e-08
6.77748e-08
6.91842e-08
7.0594e-08
7.19291e-08
7.32661e-08
7.45223e-08
7.57814e-08
7.69547e-08
7.81307e-08
7.92197e-08
8.03108e-08
8.13101e-08
8.23066e-08
8.32153e-08
8.41124e-08
8.49291e-08
8.57194e-08
8.64413e-08
8.7115e-08
8.77402e-08
8.8288e-08
8.88172e-08
8.92304e-08
8.96661e-08
8.99358e-08
9.02882e-08
9.04094e-08
9.06731e-08
9.06267e-08
9.08106e-08
9.05875e-08
9.06975e-08
9.02864e-08
9.03294e-08
8.97189e-08
8.97019e-08
8.88809e-08
8.88111e-08
8.77699e-08
8.76539e-08
8.63844e-08
8.62281e-08
8.47247e-08
8.45324e-08
8.27927e-08
8.25669e-08
8.05917e-08
8.03331e-08
7.81271e-08
7.78341e-08
7.54057e-08
7.5075e-08
7.24363e-08
7.20629e-08
6.92297e-08
6.88068e-08
6.57998e-08
6.5317e-08
6.21644e-08
6.16045e-08
5.83471e-08
5.76805e-08
5.43773e-08
5.35591e-08
5.02884e-08
4.9264e-08
4.61117e-08
4.48446e-08
4.18628e-08
4.04023e-08
3.75302e-08
3.61223e-08
3.30829e-08
3.22928e-08
2.85641e-08
2.92907e-08
2.44186e-08
2.7585e-08
2.23024e-08
2.76388e-08
2.69761e-08
2.05353e-08
6.84321e-08
0.000150978
0.000315224
0.000458343
0.000383854
0.000573876
0.000801092
0.000869258
0.00101328
0.00111653
0.00117793
0.00119912
0.00122886
0.00128453
0.00133833
0.00137298
0.00135266
0.00128951
0.00119304
0.00109224
0.000990755
0.000889075
0.000779516
0.000661867
0.000541399
0.00042399
0.000317013
0.000222283
0.000144038
8.14978e-05
3.69196e-05
7.22776e-06
9.68353e-06
1.72438e-05
1.85527e-05
1.76033e-05
1.53284e-05
1.3736e-05
1.27355e-05
1.31148e-05
1.38538e-05
1.4743e-05
1.55379e-05
1.65216e-05
1.7427e-05
1.82108e-05
1.8975e-05
1.96178e-05
2.02512e-05
2.07702e-05
2.12644e-05
2.16896e-05
2.20683e-05
2.23916e-05
2.27117e-05
2.29156e-05
2.31439e-05
2.331e-05
2.33966e-05
2.34389e-05
2.3499e-05
2.34156e-05
2.32777e-05
2.31038e-05
2.29199e-05
2.26282e-05
2.22853e-05
2.18674e-05
2.14233e-05
2.09069e-05
2.03624e-05
1.97608e-05
1.91428e-05
1.84815e-05
1.7814e-05
1.71193e-05
1.64285e-05
1.57238e-05
1.50322e-05
1.43409e-05
1.36716e-05
1.30135e-05
1.23831e-05
1.17714e-05
1.11902e-05
1.06326e-05
1.01061e-05
9.60564e-06
9.13507e-06
8.69133e-06
8.27499e-06
7.88484e-06
7.51894e-06
7.17775e-06
6.85734e-06
6.55973e-06
6.27945e-06
6.01987e-06
5.77442e-06
5.54756e-06
5.33196e-06
5.13297e-06
4.94277e-06
4.76733e-06
4.59863e-06
4.44303e-06
4.2925e-06
4.15359e-06
4.01842e-06
3.89356e-06
3.77142e-06
3.65842e-06
3.54739e-06
3.44446e-06
3.34294e-06
3.24861e-06
3.1553e-06
3.06837e-06
2.98221e-06
2.90169e-06
2.8218e-06
2.7469e-06
2.67255e-06
2.60261e-06
2.53319e-06
2.46767e-06
2.40267e-06
2.34113e-06
2.28013e-06
2.22218e-06
2.16482e-06
2.11015e-06
2.05611e-06
2.00445e-06
1.95347e-06
1.9046e-06
1.85643e-06
1.81013e-06
1.76458e-06
1.72069e-06
1.67756e-06
1.63591e-06
1.59505e-06
1.55551e-06
1.51676e-06
1.4792e-06
1.44243e-06
1.40674e-06
1.37182e-06
1.33789e-06
1.30472e-06
1.27246e-06
1.24093e-06
1.21024e-06
1.18027e-06
1.15106e-06
1.12255e-06
1.09476e-06
1.06763e-06
1.04118e-06
1.01536e-06
9.90178e-07
9.65608e-07
9.41627e-07
9.18235e-07
8.95401e-07
8.73129e-07
8.51384e-07
8.30177e-07
8.09471e-07
7.89276e-07
7.69559e-07
7.50329e-07
7.31555e-07
7.13246e-07
6.95372e-07
6.77941e-07
6.60927e-07
6.44336e-07
6.28144e-07
6.12356e-07
5.9695e-07
5.81929e-07
5.67276e-07
5.52992e-07
5.39059e-07
5.2548e-07
5.12238e-07
4.99334e-07
4.86755e-07
4.74499e-07
4.62554e-07
4.50919e-07
4.39583e-07
4.28543e-07
4.1779e-07
4.07321e-07
3.97127e-07
3.87204e-07
3.77545e-07
3.68145e-07
3.58998e-07
3.50098e-07
3.41439e-07
3.33017e-07
3.24826e-07
3.16859e-07
3.09112e-07
3.0158e-07
2.94256e-07
2.87137e-07
2.80216e-07
2.73488e-07
2.66949e-07
2.60594e-07
2.54417e-07
2.48414e-07
2.4258e-07
2.3691e-07
2.31399e-07
2.26044e-07
2.2084e-07
2.15782e-07
2.10867e-07
2.0609e-07
2.01448e-07
1.96936e-07
1.92551e-07
1.8829e-07
1.84148e-07
1.80123e-07
1.76211e-07
1.7241e-07
1.68716e-07
1.65126e-07
1.61639e-07
1.58251e-07
1.5496e-07
1.51763e-07
1.48658e-07
1.45644e-07
1.42717e-07
1.39876e-07
1.37119e-07
1.34443e-07
1.31847e-07
1.2933e-07
1.26888e-07
1.24521e-07
1.22226e-07
1.20002e-07
1.17846e-07
1.15758e-07
1.13734e-07
1.11773e-07
1.09873e-07
1.08032e-07
1.06248e-07
1.04519e-07
1.02842e-07
1.01215e-07
9.9636e-08
9.81028e-08
9.66126e-08
9.51635e-08
9.37526e-08
9.23776e-08
9.10361e-08
8.97254e-08
8.84433e-08
8.71871e-08
8.59543e-08
8.47426e-08
8.35495e-08
8.23726e-08
8.12096e-08
8.00583e-08
7.89164e-08
7.7782e-08
7.66528e-08
7.5527e-08
7.44028e-08
7.32784e-08
7.21521e-08
7.10226e-08
6.98883e-08
6.8748e-08
6.76006e-08
6.64451e-08
6.52806e-08
6.41064e-08
6.29217e-08
6.17262e-08
6.05197e-08
5.93022e-08
5.80737e-08
5.6834e-08
5.55832e-08
5.43227e-08
5.30524e-08
5.17732e-08
5.04872e-08
4.91946e-08
4.78965e-08
4.65947e-08
4.52913e-08
4.39882e-08
4.26879e-08
4.13928e-08
4.01059e-08
3.88302e-08
3.75693e-08
3.6327e-08
3.51074e-08
3.39151e-08
3.27551e-08
3.16325e-08
3.05532e-08
2.95231e-08
2.85487e-08
2.76366e-08
2.67933e-08
2.60256e-08
2.53398e-08
2.47416e-08
2.4236e-08
2.38269e-08
2.35167e-08
2.33065e-08
2.31952e-08
2.31804e-08
2.32573e-08
2.34198e-08
2.36612e-08
2.39737e-08
2.43485e-08
2.47766e-08
2.52492e-08
2.57573e-08
2.62924e-08
2.68465e-08
2.74117e-08
2.79812e-08
2.85483e-08
2.91069e-08
2.96517e-08
3.01774e-08
3.06795e-08
3.11539e-08
3.15967e-08
3.20045e-08
3.23742e-08
3.27029e-08
3.29882e-08
3.32279e-08
3.342e-08
3.35633e-08
3.36549e-08
3.36925e-08
3.36781e-08
3.36106e-08
3.34883e-08
3.33105e-08
3.30774e-08
3.27887e-08
3.24445e-08
3.20454e-08
3.15917e-08
3.10843e-08
3.05242e-08
2.99125e-08
2.92508e-08
2.85407e-08
2.77844e-08
2.69846e-08
2.61446e-08
2.52683e-08
2.4358e-08
2.34177e-08
2.24535e-08
2.14723e-08
2.04816e-08
1.94908e-08
1.85111e-08
1.75557e-08
1.66412e-08
1.5787e-08
1.50165e-08
1.4356e-08
1.38343e-08
1.348e-08
1.33188e-08
1.3369e-08
1.36384e-08
1.4124e-08
1.4812e-08
1.56832e-08
1.67137e-08
1.78814e-08
1.91637e-08
2.0543e-08
2.20016e-08
2.35275e-08
2.51067e-08
2.67326e-08