/*--------------------------------*- C++ -*----------------------------------*\
| =========                 |                                                 |
| \\      /  F ield         | OpenFOAM: The Open Source CFD Toolbox           |
|  \\    /   O peration     | Version:  v2012                                 |
|   \\  /    A nd           | Website:  www.openfoam.com                      |
|    \\/     M anipulation  |                                                 |
\*---------------------------------------------------------------------------*/
FoamFile
{
    version     2.0;
    format      ascii;
    class       volScalarField;
    location    "200";
    object      he_filtered;
}
// * * * * * * * * * * * * * * * * * * * * * * * * * * * * * * * * * * * * * //

dimensions      [0 2 -2 0 0 0 0];


internalField   nonuniform List<scalar> 
65536
(
2044.35
2043.01
2041.44
2039.2
2036.29
2032.66
2028.34
2023.35
2017.69
2011.39
2004.47
1996.97
1988.91
1980.35
1971.32
1961.87
1952.05
1941.91
1931.54
1920.98
1910.32
1899.64
1889
1878.48
1868.16
1858.09
1848.34
1838.97
1830.02
1821.53
1813.52
1806.01
1799
1792.48
1786.43
1780.8
1775.57
1770.67
1766.05
1761.66
1757.43
1753.31
1749.24
1745.17
1741.06
1736.88
1732.59
1728.18
1723.63
1718.94
1714.11
1709.15
1704.08
1698.91
1693.68
1688.4
1683.11
1677.85
1672.63
1667.49
1662.45
1657.56
1652.81
1648.25
1643.89
1639.74
1635.82
1632.13
1628.68
1625.47
1622.51
1619.79
1617.31
1615.06
1613.04
1611.23
1609.63
1608.22
1606.99
1605.94
1605.04
1604.3
1603.69
1603.2
1602.84
1602.57
1602.4
1602.31
1602.31
1602.36
1602.48
1602.66
1602.87
1603.13
1603.43
1603.76
1604.11
1604.48
1604.87
1605.28
1605.7
1606.13
1606.57
1607.01
1607.45
1607.9
1608.35
1608.8
1609.24
1609.68
1610.12
1610.56
1610.99
1611.41
1611.83
1612.24
1612.65
1613.05
1613.45
1613.84
1614.22
1614.6
1614.97
1615.33
1615.69
1616.04
1616.38
1616.72
1617.06
1617.39
1617.71
1618.03
1618.34
1618.65
1618.96
1619.26
1619.55
1619.85
1620.13
1620.42
1620.7
1620.98
1621.25
1621.52
1621.79
1622.06
1622.32
1622.58
1622.84
1623.1
1623.35
1623.61
1623.86
1624.1
1624.35
1624.6
1624.84
1625.08
1625.32
1625.56
1625.8
1626.04
1626.27
1626.51
1626.74
1626.97
1627.2
1627.43
1627.66
1627.88
1628.11
1628.33
1628.55
1628.78
1629
1629.21
1629.43
1629.65
1629.86
1630.08
1630.29
1630.5
1630.71
1630.91
1631.12
1631.32
1631.53
1631.73
1631.93
1632.12
1632.32
1632.51
1632.7
1632.89
1633.08
1633.27
1633.45
1633.63
1633.81
1633.99
1634.16
1634.33
1634.5
1634.67
1634.84
1635
1635.16
1635.32
1635.48
1635.63
1635.78
1635.93
1636.08
1636.22
1636.36
1636.5
1636.64
1636.78
1636.91
1637.04
1637.17
1637.29
1637.42
1637.54
1637.66
1637.78
1637.89
1638
1638.12
1638.22
1638.33
1638.44
1638.54
1638.64
1638.74
1638.84
1638.94
1639.03
1639.12
1639.21
1639.3
1639.39
1639.48
1639.57
1639.65
1639.73
1639.82
1639.9
1639.98
1640.06
1640.14
1640.21
1640.29
1640.37
1640.44
1640.51
1640.59
1640.66
1640.73
1640.81
1640.88
1640.95
1641.02
1641.09
1641.16
1641.23
1641.3
1641.37
1641.44
1641.51
1641.58
1641.65
1641.72
1641.79
1641.86
1641.93
1642
1642.08
1642.15
1642.22
1642.29
1642.36
1642.43
1642.5
1642.58
1642.65
1642.72
1642.79
1642.87
1642.94
1643.01
1643.09
1643.16
1643.23
1643.31
1643.38
1643.46
1643.53
1643.61
1643.68
1643.76
1643.83
1643.91
1643.99
1644.06
1644.14
1644.21
1644.29
1644.36
1644.44
1644.51
1644.59
1644.67
1644.74
1644.81
1644.89
1644.96
1645.04
1645.11
1645.18
1645.26
1645.33
1645.4
1645.47
1645.54
1645.61
1645.68
1645.75
1645.82
1645.89
1645.96
1646.02
1646.09
1646.15
1646.22
1646.28
1646.34
1646.41
1646.47
1646.53
1646.59
1646.65
1646.7
1646.76
1646.82
1646.87
1646.92
1646.98
1647.03
1647.08
1647.13
1647.18
1647.23
1647.28
1647.32
1647.37
1647.41
1647.45
1647.5
1647.54
1647.58
1647.62
1647.66
1647.69
1647.73
1647.77
1647.8
1647.83
1647.87
1647.9
1647.93
1647.96
1647.99
1648.02
1648.05
1648.07
1648.1
1648.12
1648.15
1648.17
1648.19
1648.21
1648.24
1648.26
1648.28
1648.29
1648.31
1648.33
1648.35
1648.36
1648.38
1648.4
1648.41
1648.42
1648.44
1648.45
1648.46
1648.48
1648.49
1648.5
1648.51
1648.52
1648.53
1648.54
1648.55
1648.56
1648.57
1648.57
1648.58
1648.59
1648.6
1648.6
1648.61
1648.62
1648.62
1648.63
1648.63
1648.64
1648.65
1648.65
1648.66
1648.66
1648.67
1648.67
1648.67
1648.68
1648.68
1648.69
1648.69
1648.7
1648.7
1648.7
1648.71
1648.71
1648.72
1648.72
1648.72
1648.73
1648.73
1648.73
1648.74
1648.74
1648.75
1648.75
1648.75
1648.76
1648.76
1648.76
1648.77
1648.77
1648.77
1648.78
1648.78
1648.79
1648.79
1648.79
1648.8
1648.8
1648.81
1648.81
1648.81
1648.82
1648.82
1648.82
1648.83
1648.83
1648.84
1648.84
1648.84
1648.85
1648.85
1648.86
1648.86
1648.86
1648.87
1648.87
1648.87
1648.88
1648.88
1648.89
1648.89
1648.89
1648.9
1648.9
1648.9
1648.91
1648.91
1648.91
1648.91
1648.92
1648.92
1648.92
1648.93
1648.93
1648.93
1648.93
1648.93
1648.94
1648.94
1648.94
1648.94
1648.94
1648.94
1648.95
1648.95
1648.95
1648.95
1648.95
1648.95
1648.95
1648.95
1648.95
1554.56
1554.04
1552.67
1550.47
1547.57
1543.94
1539.62
1534.62
1528.94
1522.62
1515.67
1508.13
1500.04
1491.44
1482.37
1472.89
1463.03
1452.86
1442.44
1431.85
1421.16
1410.44
1399.78
1389.25
1378.91
1368.83
1359.07
1349.68
1340.71
1332.21
1324.18
1316.66
1309.64
1303.12
1297.06
1291.43
1286.2
1281.29
1276.67
1272.28
1268.04
1263.92
1259.85
1255.77
1251.66
1247.48
1243.19
1238.77
1234.22
1229.52
1224.68
1219.72
1214.64
1209.47
1204.23
1198.95
1193.66
1188.39
1183.16
1178.01
1172.98
1168.07
1163.33
1158.76
1154.39
1150.23
1146.3
1142.6
1139.14
1135.93
1132.96
1130.23
1127.73
1125.47
1123.43
1121.6
1119.98
1118.56
1117.31
1116.24
1115.32
1114.55
1113.92
1113.42
1113.02
1112.74
1112.54
1112.43
1112.4
1112.43
1112.52
1112.67
1112.87
1113.1
1113.37
1113.67
1114
1114.35
1114.72
1115.11
1115.5
1115.91
1116.33
1116.75
1117.17
1117.6
1118.03
1118.46
1118.88
1119.31
1119.73
1120.14
1120.56
1120.97
1121.37
1121.77
1122.16
1122.55
1122.93
1123.3
1123.67
1124.04
1124.39
1124.75
1125.09
1125.43
1125.77
1126.1
1126.42
1126.74
1127.05
1127.36
1127.67
1127.97
1128.26
1128.56
1128.84
1129.13
1129.41
1129.69
1129.96
1130.23
1130.5
1130.76
1131.03
1131.29
1131.54
1131.8
1132.05
1132.3
1132.55
1132.8
1133.04
1133.29
1133.53
1133.77
1134.01
1134.25
1134.48
1134.72
1134.95
1135.18
1135.41
1135.64
1135.87
1136.1
1136.33
1136.55
1136.78
1137
1137.22
1137.44
1137.66
1137.88
1138.1
1138.32
1138.53
1138.74
1138.96
1139.17
1139.38
1139.59
1139.79
1140
1140.2
1140.4
1140.6
1140.8
1141
1141.19
1141.39
1141.58
1141.77
1141.96
1142.14
1142.33
1142.51
1142.69
1142.87
1143.04
1143.21
1143.38
1143.55
1143.72
1143.88
1144.05
1144.21
1144.36
1144.52
1144.67
1144.82
1144.97
1145.12
1145.26
1145.4
1145.54
1145.68
1145.81
1145.94
1146.07
1146.2
1146.33
1146.45
1146.57
1146.69
1146.8
1146.92
1147.03
1147.14
1147.25
1147.36
1147.46
1147.56
1147.66
1147.76
1147.86
1147.96
1148.05
1148.14
1148.23
1148.32
1148.41
1148.5
1148.58
1148.67
1148.75
1148.83
1148.91
1148.99
1149.07
1149.15
1149.23
1149.3
1149.38
1149.45
1149.53
1149.6
1149.67
1149.75
1149.82
1149.89
1149.96
1150.03
1150.1
1150.17
1150.24
1150.31
1150.38
1150.45
1150.52
1150.59
1150.66
1150.73
1150.8
1150.87
1150.94
1151.01
1151.08
1151.15
1151.22
1151.3
1151.37
1151.44
1151.51
1151.58
1151.65
1151.73
1151.8
1151.87
1151.94
1152.02
1152.09
1152.17
1152.24
1152.31
1152.39
1152.46
1152.54
1152.61
1152.69
1152.76
1152.84
1152.91
1152.99
1153.07
1153.14
1153.22
1153.29
1153.37
1153.44
1153.52
1153.59
1153.67
1153.74
1153.82
1153.89
1153.97
1154.04
1154.11
1154.19
1154.26
1154.33
1154.4
1154.47
1154.54
1154.61
1154.68
1154.75
1154.82
1154.89
1154.96
1155.02
1155.09
1155.15
1155.22
1155.28
1155.34
1155.41
1155.47
1155.53
1155.59
1155.65
1155.7
1155.76
1155.82
1155.87
1155.92
1155.98
1156.03
1156.08
1156.13
1156.18
1156.23
1156.28
1156.32
1156.37
1156.41
1156.45
1156.5
1156.54
1156.58
1156.62
1156.66
1156.69
1156.73
1156.77
1156.8
1156.83
1156.87
1156.9
1156.93
1156.96
1156.99
1157.02
1157.04
1157.07
1157.1
1157.12
1157.15
1157.17
1157.19
1157.21
1157.23
1157.25
1157.27
1157.29
1157.31
1157.33
1157.35
1157.36
1157.38
1157.39
1157.41
1157.42
1157.44
1157.45
1157.46
1157.47
1157.49
1157.5
1157.51
1157.52
1157.53
1157.54
1157.55
1157.56
1157.56
1157.57
1157.58
1157.59
1157.59
1157.6
1157.61
1157.61
1157.62
1157.63
1157.63
1157.64
1157.64
1157.65
1157.65
1157.66
1157.66
1157.67
1157.67
1157.68
1157.68
1157.69
1157.69
1157.69
1157.7
1157.7
1157.71
1157.71
1157.71
1157.72
1157.72
1157.73
1157.73
1157.73
1157.74
1157.74
1157.74
1157.75
1157.75
1157.76
1157.76
1157.76
1157.77
1157.77
1157.77
1157.78
1157.78
1157.79
1157.79
1157.79
1157.8
1157.8
1157.81
1157.81
1157.81
1157.82
1157.82
1157.82
1157.83
1157.83
1157.84
1157.84
1157.84
1157.85
1157.85
1157.86
1157.86
1157.86
1157.87
1157.87
1157.87
1157.88
1157.88
1157.89
1157.89
1157.89
1157.9
1157.9
1157.9
1157.91
1157.91
1157.91
1157.91
1157.92
1157.92
1157.92
1157.93
1157.93
1157.93
1157.93
1157.93
1157.94
1157.94
1157.94
1157.94
1157.94
1157.94
1157.95
1157.95
1157.95
1157.95
1157.95
1157.95
1157.95
1157.95
1157.95
1071.85
1071.06
1069.52
1067.27
1064.3
1060.6
1056.21
1051.09
1045.28
1038.8
1031.67
1023.93
1015.61
1006.76
997.429
987.661
977.498
966.996
956.23
945.286
934.256
923.225
912.27
901.461
890.867
880.553
870.579
860.998
851.853
843.179
835.002
827.336
820.183
813.531
807.352
801.611
796.263
791.257
786.54
782.052
777.736
773.534
769.391
765.258
761.093
756.858
752.526
748.075
743.494
738.778
733.929
728.956
723.876
718.707
713.474
708.203
702.924
697.667
692.461
687.335
682.319
677.437
672.713
668.169
663.823
659.689
655.78
652.104
648.666
645.47
642.517
639.803
637.326
635.078
633.052
631.24
629.631
628.215
626.98
625.916
625.01
624.251
623.627
623.128
622.742
622.459
622.271
622.166
622.137
622.176
622.275
622.427
622.626
622.865
623.141
623.447
623.779
624.134
624.507
624.896
625.297
625.708
626.127
626.552
626.98
627.411
627.843
628.274
628.704
629.132
629.557
629.978
630.394
630.807
631.214
631.615
632.011
632.402
632.786
633.165
633.537
633.904
634.264
634.619
634.968
635.311
635.649
635.981
636.308
636.63
636.946
637.258
637.566
637.868
638.167
638.461
638.751
639.038
639.321
639.6
639.876
640.149
640.419
640.686
640.95
641.212
641.471
641.728
641.983
642.236
642.486
642.735
642.982
643.227
643.471
643.713
643.953
644.192
644.43
644.666
644.901
645.135
645.368
645.599
645.829
646.058
646.286
646.513
646.738
646.963
647.186
647.408
647.628
647.848
648.066
648.283
648.499
648.714
648.927
649.139
649.349
649.558
649.765
649.971
650.175
650.378
650.579
650.778
650.976
651.172
651.366
651.558
651.748
651.937
652.123
652.307
652.49
652.67
652.848
653.024
653.198
653.369
653.539
653.706
653.87
654.033
654.193
654.351
654.507
654.66
654.811
654.96
655.106
655.25
655.391
655.53
655.667
655.802
655.934
656.064
656.192
656.317
656.441
656.562
656.681
656.797
656.912
657.025
657.135
657.244
657.351
657.455
657.558
657.659
657.759
657.856
657.952
658.046
658.139
658.23
658.32
658.408
658.495
658.581
658.665
658.748
658.83
658.911
658.991
659.07
659.148
659.225
659.302
659.377
659.452
659.526
659.6
659.673
659.745
659.817
659.889
659.96
660.031
660.102
660.173
660.243
660.313
660.383
660.453
660.523
660.592
660.662
660.732
660.802
660.872
660.942
661.013
661.083
661.154
661.225
661.296
661.367
661.438
661.51
661.582
661.654
661.726
661.799
661.872
661.945
662.019
662.092
662.166
662.24
662.314
662.389
662.464
662.538
662.613
662.689
662.764
662.839
662.915
662.99
663.066
663.141
663.217
663.292
663.368
663.443
663.518
663.593
663.668
663.743
663.817
663.892
663.966
664.039
664.113
664.186
664.258
664.33
664.402
664.473
664.544
664.614
664.684
664.753
664.821
664.889
664.956
665.023
665.088
665.153
665.218
665.281
665.344
665.406
665.467
665.527
665.586
665.645
665.702
665.759
665.815
665.87
665.924
665.977
666.029
666.08
666.13
666.179
666.227
666.274
666.32
666.366
666.41
666.453
666.495
666.537
666.577
666.616
666.654
666.692
666.728
666.764
666.798
666.832
666.865
666.897
666.927
666.957
666.987
667.015
667.042
667.069
667.095
667.12
667.144
667.167
667.19
667.211
667.233
667.253
667.273
667.292
667.31
667.328
667.345
667.361
667.377
667.392
667.407
667.421
667.435
667.448
667.46
667.473
667.484
667.495
667.506
667.516
667.526
667.536
667.545
667.554
667.562
667.57
667.578
667.586
667.593
667.6
667.607
667.613
667.62
667.626
667.631
667.637
667.643
667.648
667.653
667.658
667.663
667.668
667.672
667.677
667.681
667.685
667.69
667.694
667.698
667.702
667.706
667.71
667.714
667.717
667.721
667.725
667.729
667.733
667.736
667.74
667.744
667.748
667.751
667.755
667.759
667.763
667.766
667.77
667.774
667.778
667.782
667.786
667.789
667.793
667.797
667.801
667.805
667.809
667.813
667.817
667.821
667.825
667.829
667.833
667.837
667.841
667.845
667.849
667.852
667.856
667.86
667.864
667.868
667.872
667.875
667.879
667.883
667.886
667.89
667.893
667.897
667.9
667.903
667.906
667.909
667.912
667.915
667.918
667.921
667.924
667.926
667.929
667.931
667.933
667.935
667.937
667.939
667.941
667.943
667.944
667.946
667.947
667.948
667.949
667.95
667.95
667.951
667.951
667.952
667.952
556.378
556.25
555.418
554.169
552.276
550.175
547.675
544.597
541.059
536.984
532.277
526.872
520.813
514.158
506.913
499.035
490.471
481.222
471.357
460.997
450.273
439.308
428.21
417.089
406.06
395.24
384.734
374.631
364.996
355.88
347.313
339.31
331.867
324.961
318.553
312.597
307.044
301.839
296.928
292.254
287.758
283.382
279.073
274.781
270.464
266.086
261.617
257.038
252.337
247.509
242.556
237.488
232.321
227.073
221.77
216.437
211.104
205.799
200.553
195.395
190.351
185.448
180.71
176.155
171.803
167.668
163.76
160.09
156.661
153.477
150.537
147.839
145.379
143.15
141.145
139.355
137.768
136.375
135.165
134.124
133.243
132.508
131.909
131.434
131.072
130.814
130.649
130.567
130.561
130.622
130.742
130.915
131.135
131.394
131.688
132.013
132.363
132.735
133.125
133.53
133.946
134.372
134.806
135.244
135.685
136.129
136.572
137.015
137.456
137.894
138.329
138.76
139.186
139.607
140.022
140.432
140.836
141.233
141.625
142.01
142.389
142.762
143.128
143.488
143.843
144.191
144.533
144.87
145.202
145.528
145.849
146.164
146.475
146.782
147.084
147.381
147.675
147.964
148.25
148.532
148.811
149.086
149.358
149.628
149.894
150.158
150.42
150.678
150.935
151.19
151.442
151.692
151.941
152.188
152.433
152.676
152.918
153.158
153.397
153.635
153.871
154.106
154.34
154.572
154.803
155.033
155.262
155.489
155.716
155.941
156.165
156.388
156.609
156.829
157.048
157.266
157.483
157.698
157.911
158.124
158.335
158.544
158.752
158.958
159.163
159.366
159.568
159.767
159.965
160.162
160.356
160.549
160.739
160.928
161.115
161.299
161.482
161.662
161.841
162.017
162.191
162.363
162.532
162.7
162.865
163.028
163.188
163.346
163.502
163.656
163.807
163.955
164.102
164.246
164.388
164.527
164.664
164.799
164.931
165.062
165.189
165.315
165.438
165.56
165.679
165.796
165.91
166.023
166.134
166.243
166.349
166.454
166.557
166.659
166.758
166.856
166.952
167.046
167.139
167.23
167.32
167.408
167.495
167.581
167.665
167.749
167.831
167.912
167.992
168.071
168.149
168.226
168.303
168.378
168.453
168.527
168.601
168.674
168.747
168.819
168.891
168.962
169.033
169.104
169.174
169.244
169.315
169.385
169.455
169.524
169.594
169.664
169.734
169.804
169.874
169.944
170.015
170.085
170.156
170.226
170.297
170.369
170.44
170.512
170.584
170.656
170.728
170.801
170.874
170.947
171.02
171.094
171.168
171.242
171.316
171.39
171.465
171.54
171.615
171.69
171.765
171.84
171.916
171.991
172.067
172.142
172.218
172.293
172.368
172.444
172.519
172.594
172.669
172.743
172.818
172.892
172.966
173.039
173.113
173.186
173.258
173.33
173.402
173.473
173.543
173.614
173.683
173.752
173.82
173.888
173.955
174.022
174.087
174.152
174.216
174.28
174.342
174.404
174.465
174.525
174.585
174.643
174.7
174.757
174.813
174.868
174.921
174.974
175.026
175.077
175.127
175.176
175.224
175.271
175.318
175.363
175.407
175.45
175.492
175.533
175.574
175.613
175.651
175.689
175.725
175.76
175.795
175.829
175.861
175.893
175.924
175.954
175.983
176.011
176.039
176.065
176.091
176.116
176.14
176.163
176.186
176.208
176.229
176.249
176.269
176.288
176.306
176.324
176.341
176.357
176.373
176.389
176.403
176.417
176.431
176.444
176.457
176.469
176.48
176.492
176.502
176.513
176.523
176.532
176.541
176.55
176.559
176.567
176.575
176.582
176.59
176.597
176.603
176.61
176.616
176.622
176.628
176.634
176.639
176.645
176.65
176.655
176.66
176.665
176.669
176.674
176.678
176.683
176.687
176.691
176.695
176.699
176.703
176.707
176.711
176.715
176.719
176.723
176.727
176.731
176.734
176.738
176.742
176.746
176.75
176.753
176.757
176.761
176.765
176.769
176.773
176.776
176.78
176.784
176.788
176.792
176.796
176.8
176.804
176.808
176.812
176.816
176.82
176.824
176.828
176.832
176.836
176.84
176.844
176.848
176.852
176.856
176.86
176.864
176.867
176.871
176.875
176.879
176.882
176.886
176.89
176.893
176.897
176.9
176.903
176.906
176.91
176.913
176.916
176.918
176.921
176.924
176.926
176.929
176.931
176.934
176.936
176.938
176.94
176.941
176.943
176.945
176.946
176.947
176.948
176.949
176.95
176.951
176.951
176.952
176.952
176.952
-254.715
-249.997
-244.617
-239.177
-234.992
-227.137
-216.891
-205.552
-192.548
-178.746
-165.137
-152.143
-139.305
-126.247
-113.159
-100.803
-90.1012
-81.6772
-75.7178
-72.1075
-70.6755
-71.3176
-73.9701
-78.5231
-84.759
-92.364
-100.965
-110.184
-119.66
-129.082
-138.191
-146.808
-154.837
-162.258
-169.104
-175.43
-181.3
-186.781
-191.938
-196.839
-201.544
-206.113
-210.601
-215.055
-219.521
-224.035
-228.624
-233.312
-238.109
-243.023
-248.049
-253.181
-258.402
-263.693
-269.032
-274.392
-279.744
-285.061
-290.311
-295.468
-300.505
-305.396
-310.118
-314.652
-318.98
-323.088
-326.967
-330.606
-334.002
-337.153
-340.058
-342.721
-345.146
-347.34
-349.31
-351.067
-352.621
-353.982
-355.162
-356.173
-357.026
-357.734
-358.308
-358.759
-359.097
-359.335
-359.48
-359.543
-359.531
-359.454
-359.319
-359.132
-358.9
-358.629
-358.323
-357.989
-357.63
-357.25
-356.852
-356.441
-356.018
-355.587
-355.149
-354.706
-354.261
-353.814
-353.367
-352.922
-352.479
-352.039
-351.602
-351.17
-350.743
-350.321
-349.905
-349.495
-349.091
-348.693
-348.302
-347.916
-347.538
-347.165
-346.799
-346.439
-346.086
-345.738
-345.396
-345.06
-344.729
-344.404
-344.084
-343.769
-343.459
-343.154
-342.853
-342.556
-342.264
-341.975
-341.691
-341.409
-341.132
-340.857
-340.586
-340.317
-340.052
-339.789
-339.529
-339.271
-339.015
-338.761
-338.51
-338.26
-338.013
-337.767
-337.523
-337.28
-337.039
-336.799
-336.561
-336.324
-336.089
-335.855
-335.622
-335.39
-335.16
-334.931
-334.703
-334.476
-334.25
-334.026
-333.803
-333.58
-333.36
-333.14
-332.922
-332.704
-332.489
-332.274
-332.061
-331.849
-331.639
-331.43
-331.223
-331.017
-330.812
-330.61
-330.409
-330.21
-330.012
-329.816
-329.622
-329.43
-329.24
-329.052
-328.865
-328.681
-328.499
-328.319
-328.141
-327.965
-327.791
-327.62
-327.45
-327.283
-327.119
-326.956
-326.796
-326.638
-326.483
-326.329
-326.179
-326.03
-325.884
-325.74
-325.598
-325.459
-325.322
-325.188
-325.056
-324.926
-324.798
-324.673
-324.549
-324.428
-324.31
-324.193
-324.078
-323.965
-323.855
-323.746
-323.64
-323.535
-323.432
-323.331
-323.232
-323.134
-323.038
-322.944
-322.851
-322.76
-322.671
-322.582
-322.495
-322.41
-322.325
-322.242
-322.16
-322.079
-321.999
-321.92
-321.842
-321.765
-321.689
-321.613
-321.539
-321.464
-321.391
-321.318
-321.245
-321.173
-321.102
-321.03
-320.959
-320.889
-320.818
-320.748
-320.678
-320.608
-320.538
-320.469
-320.399
-320.329
-320.259
-320.189
-320.119
-320.049
-319.979
-319.909
-319.838
-319.767
-319.696
-319.625
-319.554
-319.482
-319.411
-319.339
-319.266
-319.194
-319.121
-319.048
-318.975
-318.901
-318.827
-318.754
-318.679
-318.605
-318.531
-318.456
-318.381
-318.306
-318.231
-318.156
-318.081
-318.005
-317.93
-317.855
-317.779
-317.704
-317.629
-317.554
-317.479
-317.404
-317.329
-317.254
-317.18
-317.106
-317.032
-316.959
-316.886
-316.813
-316.741
-316.669
-316.597
-316.526
-316.456
-316.386
-316.316
-316.248
-316.179
-316.112
-316.045
-315.979
-315.913
-315.848
-315.784
-315.721
-315.659
-315.597
-315.536
-315.476
-315.417
-315.359
-315.301
-315.245
-315.189
-315.134
-315.081
-315.028
-314.976
-314.925
-314.875
-314.826
-314.778
-314.731
-314.685
-314.64
-314.596
-314.553
-314.511
-314.47
-314.43
-314.391
-314.352
-314.315
-314.279
-314.243
-314.209
-314.175
-314.143
-314.111
-314.08
-314.05
-314.021
-313.993
-313.966
-313.939
-313.914
-313.889
-313.865
-313.841
-313.819
-313.797
-313.776
-313.755
-313.736
-313.717
-313.698
-313.681
-313.664
-313.647
-313.631
-313.616
-313.601
-313.587
-313.574
-313.561
-313.548
-313.536
-313.524
-313.513
-313.502
-313.492
-313.482
-313.472
-313.463
-313.454
-313.446
-313.437
-313.43
-313.422
-313.415
-313.408
-313.401
-313.394
-313.388
-313.382
-313.376
-313.37
-313.364
-313.359
-313.354
-313.349
-313.344
-313.339
-313.334
-313.33
-313.325
-313.321
-313.316
-313.312
-313.308
-313.304
-313.3
-313.296
-313.292
-313.288
-313.284
-313.28
-313.276
-313.272
-313.268
-313.264
-313.26
-313.257
-313.253
-313.249
-313.245
-313.241
-313.237
-313.233
-313.229
-313.225
-313.221
-313.217
-313.213
-313.209
-313.205
-313.201
-313.197
-313.193
-313.189
-313.185
-313.181
-313.177
-313.173
-313.169
-313.165
-313.161
-313.157
-313.153
-313.149
-313.145
-313.141
-313.137
-313.133
-313.129
-313.125
-313.121
-313.118
-313.114
-313.11
-313.107
-313.103
-313.1
-313.097
-313.093
-313.09
-313.087
-313.084
-313.081
-313.078
-313.076
-313.073
-313.071
-313.068
-313.066
-313.064
-313.062
-313.06
-313.058
-313.056
-313.055
-313.053
-313.052
-313.051
-313.05
-313.049
-313.048
-313.048
-313.047
-313.047
-313.047
-2013.7
-1994.19
-1966.68
-1942.25
-1925.86
-1892.09
-1845.95
-1793.23
-1731.48
-1664.52
-1596.45
-1528
-1456.05
-1378.21
-1294.91
-1209.33
-1125.64
-1046.94
-974.401
-907.867
-847.068
-792.339
-744.552
-704.592
-672.928
-649.489
-633.742
-624.817
-621.601
-622.83
-627.203
-633.52
-640.799
-648.333
-655.682
-662.628
-669.104
-675.128
-680.751
-686.049
-691.101
-695.986
-700.765
-705.49
-710.203
-714.943
-719.739
-724.613
-729.579
-734.643
-739.804
-745.053
-750.378
-755.759
-761.174
-766.598
-772.003
-777.361
-782.644
-787.824
-792.875
-797.772
-802.494
-807.022
-811.338
-815.43
-819.287
-822.902
-826.27
-829.39
-832.262
-834.89
-837.278
-839.434
-841.367
-843.085
-844.599
-845.921
-847.062
-848.035
-848.851
-849.522
-850.059
-850.475
-850.78
-850.985
-851.098
-851.131
-851.091
-850.986
-850.824
-850.612
-850.356
-850.062
-849.735
-849.38
-849.001
-848.602
-848.188
-847.759
-847.321
-846.874
-846.422
-845.966
-845.508
-845.049
-844.591
-844.135
-843.681
-843.231
-842.786
-842.345
-841.91
-841.48
-841.057
-840.639
-840.229
-839.824
-839.427
-839.036
-838.652
-838.274
-837.903
-837.539
-837.18
-836.828
-836.483
-836.143
-835.808
-835.48
-835.156
-834.838
-834.525
-834.217
-833.913
-833.614
-833.319
-833.028
-832.741
-832.457
-832.178
-831.901
-831.628
-831.358
-831.09
-830.826
-830.564
-830.304
-830.047
-829.792
-829.539
-829.288
-829.04
-828.792
-828.547
-828.303
-828.061
-827.821
-827.582
-827.344
-827.108
-826.873
-826.639
-826.407
-826.176
-825.946
-825.717
-825.49
-825.263
-825.038
-824.814
-824.592
-824.37
-824.15
-823.931
-823.714
-823.497
-823.282
-823.069
-822.857
-822.646
-822.437
-822.229
-822.023
-821.818
-821.615
-821.414
-821.214
-821.016
-820.82
-820.626
-820.434
-820.243
-820.055
-819.868
-819.684
-819.501
-819.321
-819.143
-818.967
-818.793
-818.621
-818.452
-818.285
-818.12
-817.957
-817.797
-817.639
-817.483
-817.33
-817.179
-817.03
-816.884
-816.74
-816.598
-816.459
-816.322
-816.187
-816.055
-815.925
-815.797
-815.671
-815.548
-815.427
-815.308
-815.191
-815.076
-814.963
-814.853
-814.744
-814.637
-814.533
-814.43
-814.328
-814.229
-814.131
-814.035
-813.941
-813.848
-813.757
-813.667
-813.579
-813.492
-813.406
-813.322
-813.239
-813.156
-813.075
-812.996
-812.917
-812.838
-812.761
-812.685
-812.609
-812.534
-812.46
-812.387
-812.314
-812.241
-812.169
-812.097
-812.026
-811.955
-811.884
-811.814
-811.744
-811.674
-811.604
-811.534
-811.464
-811.394
-811.324
-811.255
-811.185
-811.115
-811.045
-810.974
-810.904
-810.834
-810.763
-810.692
-810.621
-810.55
-810.478
-810.406
-810.334
-810.262
-810.19
-810.117
-810.044
-809.971
-809.897
-809.824
-809.75
-809.676
-809.602
-809.527
-809.453
-809.378
-809.303
-809.228
-809.153
-809.078
-809.003
-808.927
-808.852
-808.777
-808.702
-808.627
-808.552
-808.477
-808.402
-808.327
-808.253
-808.179
-808.105
-808.031
-807.958
-807.885
-807.813
-807.74
-807.669
-807.597
-807.526
-807.456
-807.386
-807.317
-807.248
-807.18
-807.113
-807.046
-806.98
-806.915
-806.85
-806.786
-806.723
-806.661
-806.599
-806.538
-806.479
-806.42
-806.361
-806.304
-806.248
-806.192
-806.138
-806.084
-806.032
-805.98
-805.929
-805.879
-805.83
-805.783
-805.736
-805.69
-805.645
-805.601
-805.558
-805.516
-805.475
-805.435
-805.396
-805.358
-805.32
-805.284
-805.249
-805.214
-805.181
-805.148
-805.117
-805.086
-805.056
-805.027
-804.999
-804.972
-804.945
-804.92
-804.895
-804.871
-804.847
-804.825
-804.803
-804.782
-804.762
-804.742
-804.723
-804.705
-804.687
-804.67
-804.653
-804.638
-804.622
-804.608
-804.593
-804.58
-804.567
-804.554
-804.542
-804.53
-804.519
-804.508
-804.498
-804.488
-804.478
-804.469
-804.46
-804.451
-804.443
-804.435
-804.428
-804.42
-804.413
-804.406
-804.4
-804.393
-804.387
-804.381
-804.375
-804.37
-804.364
-804.359
-804.354
-804.349
-804.344
-804.339
-804.334
-804.33
-804.325
-804.321
-804.316
-804.312
-804.308
-804.304
-804.3
-804.296
-804.291
-804.287
-804.283
-804.279
-804.276
-804.272
-804.268
-804.264
-804.26
-804.256
-804.252
-804.248
-804.244
-804.24
-804.236
-804.232
-804.228
-804.224
-804.22
-804.216
-804.211
-804.207
-804.203
-804.199
-804.195
-804.191
-804.187
-804.183
-804.178
-804.174
-804.17
-804.166
-804.162
-804.158
-804.154
-804.15
-804.146
-804.142
-804.138
-804.134
-804.13
-804.126
-804.122
-804.118
-804.114
-804.111
-804.107
-804.104
-804.1
-804.097
-804.093
-804.09
-804.087
-804.084
-804.081
-804.078
-804.075
-804.073
-804.07
-804.068
-804.066
-804.063
-804.061
-804.059
-804.057
-804.056
-804.054
-804.053
-804.052
-804.05
-804.049
-804.049
-804.048
-804.047
-804.047
-804.047
-804.046
-5225.55
-5185.86
-5120.44
-5069.64
-5043.91
-4975.77
-4879.13
-4767.78
-4633.79
-4487.73
-4339.57
-4188.18
-4023.13
-3837.72
-3632.34
-3414.16
-3193.18
-2976.96
-2767.93
-2564.6
-2365.53
-2171.78
-1987.08
-1815.96
-1662.32
-1528.67
-1416.33
-1325.65
-1255.99
-1205.71
-1172.29
-1152.61
-1143.36
-1141.43
-1144.1
-1149.3
-1155.55
-1161.98
-1168.2
-1174.08
-1179.65
-1184.96
-1190.1
-1195.14
-1200.13
-1205.13
-1210.15
-1215.22
-1220.36
-1225.57
-1230.86
-1236.22
-1241.63
-1247.08
-1252.55
-1258.01
-1263.44
-1268.81
-1274.09
-1279.26
-1284.29
-1289.16
-1293.85
-1298.34
-1302.61
-1306.65
-1310.45
-1314.01
-1317.33
-1320.39
-1323.2
-1325.78
-1328.11
-1330.21
-1332.09
-1333.75
-1335.22
-1336.49
-1337.59
-1338.52
-1339.29
-1339.92
-1340.42
-1340.8
-1341.07
-1341.25
-1341.33
-1341.34
-1341.27
-1341.15
-1340.96
-1340.73
-1340.46
-1340.15
-1339.8
-1339.43
-1339.04
-1338.63
-1338.21
-1337.77
-1337.32
-1336.87
-1336.41
-1335.94
-1335.48
-1335.01
-1334.55
-1334.09
-1333.63
-1333.18
-1332.73
-1332.29
-1331.85
-1331.42
-1330.99
-1330.57
-1330.16
-1329.76
-1329.36
-1328.97
-1328.58
-1328.2
-1327.83
-1327.47
-1327.11
-1326.76
-1326.41
-1326.07
-1325.74
-1325.41
-1325.09
-1324.77
-1324.46
-1324.15
-1323.84
-1323.55
-1323.25
-1322.96
-1322.68
-1322.39
-1322.11
-1321.84
-1321.57
-1321.3
-1321.03
-1320.77
-1320.51
-1320.25
-1319.99
-1319.74
-1319.48
-1319.23
-1318.99
-1318.74
-1318.5
-1318.25
-1318.01
-1317.77
-1317.53
-1317.3
-1317.06
-1316.83
-1316.59
-1316.36
-1316.13
-1315.9
-1315.68
-1315.45
-1315.22
-1315
-1314.78
-1314.55
-1314.33
-1314.11
-1313.9
-1313.68
-1313.46
-1313.25
-1313.04
-1312.82
-1312.61
-1312.41
-1312.2
-1311.99
-1311.79
-1311.59
-1311.39
-1311.19
-1310.99
-1310.79
-1310.6
-1310.41
-1310.22
-1310.03
-1309.84
-1309.66
-1309.48
-1309.3
-1309.12
-1308.94
-1308.77
-1308.6
-1308.43
-1308.26
-1308.1
-1307.94
-1307.78
-1307.62
-1307.46
-1307.31
-1307.16
-1307.01
-1306.87
-1306.72
-1306.58
-1306.44
-1306.3
-1306.17
-1306.04
-1305.91
-1305.78
-1305.66
-1305.53
-1305.41
-1305.29
-1305.18
-1305.06
-1304.95
-1304.84
-1304.73
-1304.62
-1304.52
-1304.42
-1304.31
-1304.22
-1304.12
-1304.02
-1303.93
-1303.84
-1303.74
-1303.65
-1303.57
-1303.48
-1303.39
-1303.31
-1303.23
-1303.14
-1303.06
-1302.98
-1302.9
-1302.83
-1302.75
-1302.67
-1302.6
-1302.52
-1302.45
-1302.38
-1302.3
-1302.23
-1302.16
-1302.09
-1302.02
-1301.94
-1301.87
-1301.8
-1301.73
-1301.66
-1301.59
-1301.52
-1301.45
-1301.38
-1301.31
-1301.24
-1301.18
-1301.11
-1301.04
-1300.97
-1300.9
-1300.82
-1300.75
-1300.68
-1300.61
-1300.54
-1300.47
-1300.4
-1300.33
-1300.25
-1300.18
-1300.11
-1300.04
-1299.96
-1299.89
-1299.82
-1299.74
-1299.67
-1299.6
-1299.52
-1299.45
-1299.37
-1299.3
-1299.22
-1299.15
-1299.07
-1299
-1298.92
-1298.85
-1298.77
-1298.7
-1298.62
-1298.55
-1298.47
-1298.4
-1298.32
-1298.25
-1298.18
-1298.1
-1298.03
-1297.96
-1297.88
-1297.81
-1297.74
-1297.67
-1297.6
-1297.53
-1297.46
-1297.39
-1297.32
-1297.25
-1297.18
-1297.11
-1297.05
-1296.98
-1296.92
-1296.85
-1296.79
-1296.72
-1296.66
-1296.6
-1296.54
-1296.48
-1296.42
-1296.36
-1296.31
-1296.25
-1296.2
-1296.14
-1296.09
-1296.04
-1295.98
-1295.93
-1295.88
-1295.83
-1295.79
-1295.74
-1295.69
-1295.65
-1295.61
-1295.56
-1295.52
-1295.48
-1295.44
-1295.4
-1295.36
-1295.33
-1295.29
-1295.25
-1295.22
-1295.19
-1295.15
-1295.12
-1295.09
-1295.06
-1295.03
-1295.01
-1294.98
-1294.95
-1294.93
-1294.9
-1294.88
-1294.85
-1294.83
-1294.81
-1294.79
-1294.77
-1294.75
-1294.73
-1294.71
-1294.69
-1294.68
-1294.66
-1294.64
-1294.63
-1294.61
-1294.6
-1294.59
-1294.57
-1294.56
-1294.55
-1294.54
-1294.53
-1294.52
-1294.5
-1294.49
-1294.48
-1294.48
-1294.47
-1294.46
-1294.45
-1294.44
-1294.43
-1294.43
-1294.42
-1294.41
-1294.41
-1294.4
-1294.39
-1294.39
-1294.38
-1294.38
-1294.37
-1294.36
-1294.36
-1294.35
-1294.35
-1294.34
-1294.34
-1294.33
-1294.33
-1294.33
-1294.32
-1294.32
-1294.31
-1294.31
-1294.3
-1294.3
-1294.3
-1294.29