/*--------------------------------*- C++ -*----------------------------------*\
| =========                 |                                                 |
| \\      /  F ield         | OpenFOAM: The Open Source CFD Toolbox           |
|  \\    /   O peration     | Version:  v2012                                 |
|   \\  /    A nd           | Website:  www.openfoam.com                      |
|    \\/     M anipulation  |                                                 |
\*---------------------------------------------------------------------------*/
FoamFile
{
    version     2.0;
    format      ascii;
    class       volScalarField;
    location    "200";
    object      p;
}
// * * * * * * * * * * * * * * * * * * * * * * * * * * * * * * * * * * * * * //

dimensions      [1 -1 -2 0 0 0 0];


internalField   nonuniform List<scalar> 
65536
(
140124
140122
140119
140114
140108
140099
140089
140078
140065
140050
140033
140015
139996
139975
139952
139929
139903
139877
139850
139821
139792
139762
139731
139700
139669
139638
139607
139576
139545
139516
139487
139459
139432
139406
139381
139358
139336
139316
139297
139280
139263
139249
139235
139223
139212
139202
139193
139184
139177
139171
139165
139160
139155
139151
139147
139144
139141
139138
139136
139134
139132
139130
139128
139127
139125
139124
139122
139121
139120
139119
139118
139117
139116
139115
139114
139113
139112
139111
139110
139109
139108
139107
139106
139106
139105
139104
139103
139102
139101
139100
139099
139098
139098
139097
139096
139095
139094
139093
139092
139092
139091
139090
139089
139089
139088
139087
139086
139086
139085
139084
139083
139083
139082
139081
139081
139080
139080
139079
139078
139078
139077
139077
139076
139076
139075
139075
139074
139074
139073
139073
139073
139072
139072
139071
139071
139071
139070
139070
139070
139069
139069
139069
139069
139068
139068
139068
139068
139067
139067
139067
139067
139067
139067
139066
139066
139066
139066
139066
139066
139066
139066
139066
139066
139066
139066
139066
139066
139066
139066
139066
139066
139066
139066
139066
139066
139066
139066
139066
139066
139066
139066
139066
139066
139066
139067
139067
139067
139067
139067
139067
139067
139067
139067
139067
139068
139068
139068
139068
139068
139068
139068
139068
139069
139069
139069
139069
139069
139069
139069
139069
139070
139070
139070
139070
139070
139070
139070
139070
139070
139071
139071
139071
139071
139071
139071
139071
139071
139071
139072
139072
139072
139072
139072
139072
139072
139072
139072
139072
139072
139073
139073
139073
139073
139073
139073
139073
139073
139073
139073
139073
139073
139074
139074
139074
139074
139074
139074
139074
139074
139074
139074
139074
139074
139075
139075
139075
139075
139075
139075
139075
139075
139075
139075
139075
139075
139076
139076
139076
139076
139076
139076
139076
139076
139076
139076
139077
139077
139077
139077
139077
139077
139077
139077
139077
139077
139078
139078
139078
139078
139078
139078
139078
139078
139078
139079
139079
139079
139079
139079
139079
139079
139079
139079
139080
139080
139080
139080
139080
139080
139080
139080
139080
139081
139081
139081
139081
139081
139081
139081
139081
139081
139081
139082
139082
139082
139082
139082
139082
139082
139082
139082
139082
139083
139083
139083
139083
139083
139083
139083
139083
139083
139083
139083
139083
139083
139084
139084
139084
139084
139084
139084
139084
139084
139084
139084
139084
139084
139084
139084
139084
139084
139084
139084
139085
139085
139085
139085
139085
139085
139085
139085
139085
139085
139085
139085
139085
139085
139085
139085
139085
139085
139085
139085
139085
139085
139085
139085
139085
139085
139085
139085
139085
139085
139085
139085
139085
139085
139085
139085
139085
139085
139085
139085
139085
139085
139085
139085
139085
139085
139085
139086
139086
139086
139086
139086
139086
139086
139086
139086
139086
139086
139086
139086
139086
139086
139086
139086
139086
139086
139086
139086
139086
139086
139086
139086
139086
139086
139086
139086
139086
139086
139086
139086
139086
139086
139086
139086
139086
139086
139086
139086
139086
139086
139086
139086
139086
139086
139086
139086
139086
139086
139086
139086
139086
139086
139086
139086
139086
139086
139086
139086
139086
139086
139086
139086
139086
139086
139086
139086
139086
139086
139086
139086
139086
139086
139086
139086
139086
139086
139086
139086
139086
139086
139086
139086
139086
139086
139086
139086
139086
139086
139086
139329
139327
139324
139319
139312
139304
139294
139283
139270
139255
139239
139221
139201
139180
139158
139134
139109
139083
139056
139028
138998
138969
138938
138907
138876
138845
138814
138783
138753
138723
138694
138666
138639
138614
138589
138566
138545
138524
138505
138488
138472
138457
138444
138432
138420
138410
138402
138393
138386
138380
138374
138369
138364
138360
138357
138353
138350
138348
138345
138343
138341
138340
138338
138336
138335
138334
138332
138331
138330
138329
138328
138327
138326
138325
138324
138323
138322
138321
138320
138319
138318
138318
138317
138316
138315
138314
138313
138312
138311
138310
138310
138309
138308
138307
138306
138305
138305
138304
138303
138302
138301
138301
138300
138299
138298
138297
138297
138296
138295
138295
138294
138293
138293
138292
138291
138291
138290
138290
138289
138288
138288
138287
138287
138286
138286
138285
138285
138284
138284
138284
138283
138283
138282
138282
138282
138281
138281
138281
138280
138280
138280
138279
138279
138279
138279
138279
138278
138278
138278
138278
138278
138277
138277
138277
138277
138277
138277
138277
138277
138277
138277
138276
138276
138276
138276
138276
138276
138276
138276
138276
138276
138276
138276
138276
138277
138277
138277
138277
138277
138277
138277
138277
138277
138277
138277
138277
138277
138278
138278
138278
138278
138278
138278
138278
138278
138278
138279
138279
138279
138279
138279
138279
138279
138279
138280
138280
138280
138280
138280
138280
138280
138280
138280
138281
138281
138281
138281
138281
138281
138281
138281
138281
138282
138282
138282
138282
138282
138282
138282
138282
138282
138282
138283
138283
138283
138283
138283
138283
138283
138283
138283
138283
138283
138284
138284
138284
138284
138284
138284
138284
138284
138284
138284
138284
138284
138285
138285
138285
138285
138285
138285
138285
138285
138285
138285
138285
138285
138286
138286
138286
138286
138286
138286
138286
138286
138286
138286
138286
138287
138287
138287
138287
138287
138287
138287
138287
138287
138287
138287
138288
138288
138288
138288
138288
138288
138288
138288
138288
138289
138289
138289
138289
138289
138289
138289
138289
138289
138290
138290
138290
138290
138290
138290
138290
138290
138290
138291
138291
138291
138291
138291
138291
138291
138291
138291
138292
138292
138292
138292
138292
138292
138292
138292
138292
138292
138293
138293
138293
138293
138293
138293
138293
138293
138293
138293
138293
138294
138294
138294
138294
138294
138294
138294
138294
138294
138294
138294
138294
138294
138294
138294
138295
138295
138295
138295
138295
138295
138295
138295
138295
138295
138295
138295
138295
138295
138295
138295
138295
138295
138295
138295
138295
138295
138296
138296
138296
138296
138296
138296
138296
138296
138296
138296
138296
138296
138296
138296
138296
138296
138296
138296
138296
138296
138296
138296
138296
138296
138296
138296
138296
138296
138296
138296
138296
138296
138296
138296
138296
138296
138296
138296
138296
138296
138296
138296
138296
138296
138296
138296
138296
138296
138296
138296
138296
138296
138296
138296
138296
138296
138296
138296
138296
138296
138296
138296
138296
138296
138296
138296
138296
138296
138296
138296
138296
138296
138296
138296
138296
138296
138296
138296
138296
138296
138296
138297
138297
138297
138297
138297
138297
138297
138297
138297
138297
138297
138297
138297
138297
138297
138297
138297
138297
138297
138297
138297
138297
138297
138297
138297
138297
138297
138297
138297
138297
138297
138297
138297
138297
138297
138297
138297
138297
138297
138297
138297
138297
138297
138297
138297
138297
138297
138297
138535
138533
138530
138525
138519
138510
138501
138489
138476
138462
138446
138428
138409
138388
138366
138342
138318
138292
138264
138236
138207
138178
138147
138116
138085
138054
138023
137993
137962
137933
137904
137876
137849
137824
137799
137776
137754
137734
137715
137698
137682
137668
137654
137642
137631
137621
137612
137604
137597
137591
137585
137580
137576
137572
137568
137565
137562
137560
137557
137555
137554
137552
137550
137549
137547
137546
137545
137544
137543
137542
137541
137540
137539
137538
137537
137536
137535
137534
137533
137532
137532
137531
137530
137529
137528
137527
137526
137525
137525
137524
137523
137522
137521
137520
137520
137519
137518
137517
137516
137516
137515
137514
137513
137513
137512
137511
137510
137510
137509
137508
137508
137507
137506
137506
137505
137504
137504
137503
137503
137502
137502
137501
137501
137500
137500
137499
137499
137498
137498
137497
137497
137497
137496
137496
137495
137495
137495
137494
137494
137494
137494
137493
137493
137493
137493
137492
137492
137492
137492
137492
137491
137491
137491
137491
137491
137491
137491
137491
137491
137490
137490
137490
137490
137490
137490
137490
137490
137490
137490
137490
137490
137490
137490
137490
137490
137490
137491
137491
137491
137491
137491
137491
137491
137491
137491
137491
137491
137491
137492
137492
137492
137492
137492
137492
137492
137492
137492
137493
137493
137493
137493
137493
137493
137493
137493
137494
137494
137494
137494
137494
137494
137494
137494
137494
137495
137495
137495
137495
137495
137495
137495
137495
137495
137496
137496
137496
137496
137496
137496
137496
137496
137496
137496
137497
137497
137497
137497
137497
137497
137497
137497
137497
137497
137497
137498
137498
137498
137498
137498
137498
137498
137498
137498
137498
137498
137498
137499
137499
137499
137499
137499
137499
137499
137499
137499
137499
137499
137499
137500
137500
137500
137500
137500
137500
137500
137500
137500
137500
137500
137500
137501
137501
137501
137501
137501
137501
137501
137501
137501
137501
137502
137502
137502
137502
137502
137502
137502
137502
137502
137503
137503
137503
137503
137503
137503
137503
137503
137503
137504
137504
137504
137504
137504
137504
137504
137504
137504
137505
137505
137505
137505
137505
137505
137505
137505
137505
137505
137506
137506
137506
137506
137506
137506
137506
137506
137506
137506
137507
137507
137507
137507
137507
137507
137507
137507
137507
137507
137507
137508
137508
137508
137508
137508
137508
137508
137508
137508
137508
137508
137508
137508
137508
137508
137509
137509
137509
137509
137509
137509
137509
137509
137509
137509
137509
137509
137509
137509
137509
137509
137509
137509
137509
137509
137509
137509
137509
137509
137509
137509
137510
137510
137510
137510
137510
137510
137510
137510
137510
137510
137510
137510
137510
137510
137510
137510
137510
137510
137510
137510
137510
137510
137510
137510
137510
137510
137510
137510
137510
137510
137510
137510
137510
137510
137510
137510
137510
137510
137510
137510
137510
137510
137510
137510
137510
137510
137510
137510
137510
137510
137510
137510
137510
137510
137510
137510
137510
137510
137510
137510
137510
137510
137510
137510
137510
137510
137510
137510
137510
137510
137510
137510
137510
137510
137510
137510
137510
137510
137510
137510
137510
137510
137510
137510
137510
137510
137510
137510
137510
137510
137510
137510
137510
137510
137510
137510
137511
137511
137511
137511
137511
137511
137511
137511
137511
137511
137511
137511
137511
137511
137511
137511
137511
137511
137511
137511
137511
137511
137511
137511
137511
137511
137511
137743
137741
137738
137733
137727
137719
137709
137698
137685
137671
137655
137637
137618
137598
137576
137553
137528
137502
137475
137447
137418
137389
137359
137328
137297
137266
137235
137204
137174
137144
137116
137088
137061
137035
137011
136988
136966
136946
136927
136910
136894
136880
136866
136854
136844
136834
136825
136817
136810
136804
136799
136794
136790
136786
136782
136779
136777
136774
136772
136770
136768
136767
136765
136764
136763
136761
136760
136759
136758
136757
136756
136755
136754
136754
136753
136752
136751
136750
136749
136748
136748
136747
136746
136745
136744
136743
136743
136742
136741
136740
136739
136739
136738
136737
136736
136735
136735
136734
136733
136732
136731
136731
136730
136729
136729
136728
136727
136726
136726
136725
136724
136724
136723
136722
136722
136721
136721
136720
136720
136719
136718
136718
136717
136717
136716
136716
136716
136715
136715
136714
136714
136713
136713
136713
136712
136712
136712
136711
136711
136711
136711
136710
136710
136710
136710
136709
136709
136709
136709
136709
136708
136708
136708
136708
136708
136708
136708
136708
136708
136708
136707
136707
136707
136707
136707
136707
136707
136707
136707
136707
136707
136707
136707
136707
136707
136708
136708
136708
136708
136708
136708
136708
136708
136708
136708
136708
136708
136709
136709
136709
136709
136709
136709
136709
136709
136709
136710
136710
136710
136710
136710
136710
136710
136710
136710
136711
136711
136711
136711
136711
136711
136711
136711
136712
136712
136712
136712
136712
136712
136712
136712
136712
136713
136713
136713
136713
136713
136713
136713
136713
136713
136713
136714
136714
136714
136714
136714
136714
136714
136714
136714
136714
136714
136715
136715
136715
136715
136715
136715
136715
136715
136715
136715
136715
136715
136716
136716
136716
136716
136716
136716
136716
136716
136716
136716
136716
136716
136716
136717
136717
136717
136717
136717
136717
136717
136717
136717
136717
136717
136718
136718
136718
136718
136718
136718
136718
136718
136718
136718
136719
136719
136719
136719
136719
136719
136719
136719
136719
136719
136720
136720
136720
136720
136720
136720
136720
136720
136720
136721
136721
136721
136721
136721
136721
136721
136721
136721
136722
136722
136722
136722
136722
136722
136722
136722
136722
136723
136723
136723
136723
136723
136723
136723
136723
136723
136723
136724
136724
136724
136724
136724
136724
136724
136724
136724
136724
136724
136724
136725
136725
136725
136725
136725
136725
136725
136725
136725
136725
136725
136725
136725
136725
136725
136726
136726
136726
136726
136726
136726
136726
136726
136726
136726
136726
136726
136726
136726
136726
136726
136726
136726
136726
136726
136726
136726
136726
136726
136726
136727
136727
136727
136727
136727
136727
136727
136727
136727
136727
136727
136727
136727
136727
136727
136727
136727
136727
136727
136727
136727
136727
136727
136727
136727
136727
136727
136727
136727
136727
136727
136727
136727
136727
136727
136727
136727
136727
136727
136727
136727
136727
136727
136727
136727
136727
136727
136727
136727
136727
136727
136727
136727
136727
136727
136727
136727
136727
136727
136727
136727
136727
136727
136727
136727
136727
136727
136727
136727
136727
136727
136727
136727
136727
136727
136727
136727
136727
136727
136727
136727
136727
136727
136727
136727
136727
136727
136727
136727
136727
136727
136727
136727
136727
136728
136728
136728
136728
136728
136728
136728
136728
136728
136728
136728
136728
136728
136728
136728
136728
136728
136728
136728
136728
136728
136728
136728
136728
136728
136728
136728
136728
136728
136728
136952
136951
136948
136943
136937
136929
136919
136908
136896
136881
136866
136849
136830
136810
136788
136765
136741
136715
136688
136661
136632
136602
136572
136542
136511
136480
136449
136418
136388
136358
136329
136301
136274
136249
136224
136201
136180
136159
136141
136124
136108
136093
136080
136068
136058
136048
136040
136032
136025
136019
136014
136009
136005
136002
135998
135996
135993
135991
135989
135987
135985
135984
135983
135981
135980
135979
135978
135977
135976
135976
135975
135974
135973
135972
135971
135971
135970
135969
135968
135967
135967
135966
135965
135964
135964
135963
135962
135961
135960
135960
135959
135958
135957
135956
135956
135955
135954
135953
135953
135952
135951
135950
135950
135949
135948
135948
135947
135946
135946
135945
135944
135944
135943
135942
135942
135941
135941
135940
135940
135939
135939
135938
135938
135937
135937
135936
135936
135935
135935
135934
135934
135934
135933
135933
135933
135932
135932
135932
135931
135931
135931
135930
135930
135930
135930
135930
135929
135929
135929
135929
135929
135929
135928
135928
135928
135928
135928
135928
135928
135928
135928
135928
135928
135928
135928
135928
135928
135928
135928
135928
135928
135928
135928
135928
135928
135928
135928
135928
135928
135928
135928
135928
135928
135928
135928
135929
135929
135929
135929
135929
135929
135929
135929
135929
135930
135930
135930
135930
135930
135930
135930
135930
135930
135931
135931
135931
135931
135931
135931
135931
135931
135932
135932
135932
135932
135932
135932
135932
135932
135932
135933
135933
135933
135933
135933
135933
135933
135933
135933
135934
135934
135934
135934
135934
135934
135934
135934
135934
135934
135934
135935
135935
135935
135935
135935
135935
135935
135935
135935
135935
135935
135935
135936
135936
135936
135936
135936
135936
135936
135936
135936
135936
135936
135936
135936
135937
135937
135937
135937
135937
135937
135937
135937
135937
135937
135937
135938
135938
135938
135938
135938
135938
135938
135938
135938
135938
135938
135939
135939
135939
135939
135939
135939
135939
135939
135939
135939
135940
135940
135940
135940
135940
135940
135940
135940
135940
135941
135941
135941
135941
135941
135941
135941
135941
135941
135942
135942
135942
135942
135942
135942
135942
135942
135942
135943
135943
135943
135943
135943
135943
135943
135943
135943
135943
135944
135944
135944
135944
135944
135944
135944
135944
135944
135944
135944
135945
135945
135945
135945
135945
135945
135945
135945
135945
135945
135945
135945
135945
135945
135946
135946
135946
135946
135946
135946
135946
135946
135946
135946
135946
135946
135946
135946
135946
135946
135946
135946
135946
135946
135946
135946
135947
135947
135947
135947
135947
135947
135947
135947
135947
135947
135947
135947
135947
135947
135947
135947
135947
135947
135947
135947
135947
135947
135947
135947
135947
135947
135947
135947
135947
135947
135947
135947
135947
135947
135947
135947
135947
135947
135947
135947
135947
135947
135947
135947
135947
135947
135947
135947
135947
135947
135947
135947
135947
135947
135947
135947
135947
135947
135947
135947
135947
135947
135947
135947
135947
135947
135947
135947
135947
135947
135947
135947
135947
135947
135947
135947
135947
135948
135948
135948
135948
135948
135948
135948
135948
135948
135948
135948
135948
135948
135948
135948
135948
135948
135948
135948
135948
135948
135948
135948
135948
135948
135948
135948
135948
135948
135948
135948
135948
135948
135948
135948
135948
135948
135948
135948
135948
135948
135948
135948
135948
135948
135948
135948
135948
135948
135948
135948
135948
135948
135948
136161
136160
136157
136152
136146
136138
136129
136118
136106
136092
136077
136060
136042
136022
136001
135978
135954
135929
135903
135876
135847
135818
135788
135758
135727
135696
135665
135634
135604
135574
135545
135517
135490
135464
135439
135416
135395
135375
135356
135339
135323
135309
135296
135284
135274
135265
135256
135249
135242
135237
135232
135227
135223
135220
135217
135214
135212
135210
135208
135207
135205
135204
135203
135202
135201
135200
135199
135198
135197
135197
135196
135195
135194
135194
135193
135192
135192
135191
135190
135189
135189
135188
135187
135187
135186
135185
135184
135184
135183
135182
135181
135181
135180
135179
135178
135178
135177
135176
135175
135175
135174
135173
135173
135172
135171
135171
135170
135169
135169
135168
135167
135167
135166
135166
135165
135164
135164
135163
135163
135162
135162
135161
135161
135160
135160
135159
135159
135158
135158
135158
135157
135157
135157
135156
135156
135156
135155
135155
135155
135154
135154
135154
135154
135153
135153
135153
135153
135153
135152
135152
135152
135152
135152
135152
135152
135151
135151
135151
135151
135151
135151
135151
135151
135151
135151
135151
135151
135151
135151
135151
135151
135151
135151
135151
135151
135151
135151
135151
135151
135151
135152
135152
135152
135152
135152
135152
135152
135152
135152
135152
135153
135153
135153
135153
135153
135153
135153
135153
135153
135154
135154
135154
135154
135154
135154
135154
135154
135155
135155
135155
135155
135155
135155
135155
135155
135155
135156
135156
135156
135156
135156
135156
135156
135156
135156
135157
135157
135157
135157
135157
135157
135157
135157
135157
135157
135158
135158
135158
135158
135158
135158
135158
135158
135158
135158
135158
135158
135159
135159
135159
135159
135159
135159
135159
135159
135159
135159
135159
135159
135160
135160
135160
135160
135160
135160
135160
135160
135160
135160
135160
135160
135161
135161
135161
135161
135161
135161
135161
135161
135161
135161
135161
135162
135162
135162
135162
135162
135162
135162
135162
135162
135162
135162
135163
135163
135163
135163
135163
135163
135163
135163
135163
135164
135164
135164
135164
135164
135164
135164
135164
135164
135165
135165
135165
135165
135165
135165
135165
135165
135165
135166
135166
135166
135166
135166
135166
135166
135166
135166
135166
135167
135167
135167
135167
135167
135167
135167
135167
135167
135167
135167
135168
135168
135168
135168
135168
135168
135168
135168
135168
135168
135168
135168
135168
135169
135169
135169
135169
135169
135169
135169
135169
135169
135169
135169
135169
135169
135169
135169
135169
135169
135170
135170
135170
135170
135170
135170
135170
135170
135170
135170
135170
135170
135170
135170
135170
135170
135170
135170
135170
135170
135170
135170
135170
135170
135170
135170
135170
135170
135170
135170
135170
135170
135170
135170
135170
135170
135170
135170
135170
135170
135170
135170
135170
135171
135171
135171
135171
135171
135171
135171
135171
135171
135171
135171
135171
135171
135171
135171
135171
135171
135171
135171
135171
135171
135171
135171
135171
135171
135171
135171
135171
135171
135171
135171
135171
135171
135171
135171
135171
135171
135171
135171
135171
135171
135171
135171
135171
135171
135171
135171
135171
135171
135171
135171
135171
135171
135171
135171
135171
135171
135171
135171
135171
135171
135171
135171
135171
135171
135171
135171
135171
135171
135171
135171
135171
135171
135171
135171
135171
135171
135171
135171
135171
135171
135171
135171
135171
135171
135171
135171
135171
135171
135171
135171
135171
135171
135171
135171
135171
135171
135171
135367
135365
135362
135358
135352
135345
135336
135326
135314
135301
135286
135270
135252
135233
135213
135191
135168
135143
135117
135091
135063
135034
135005
134975
134944
134913
134882
134852
134821
134791
134762
134734
134707
134681
134656
134633
134611
134591
134573
134555
134540
134526
134513
134502
134492
134482
134474
134467
134461
134456
134451
134447
134443
134440
134438
134435
134433
134431
134430
134429
134427
134426
134425
134425
134424
134423
134422
134422
134421
134420
134420
134419
134419
134418
134417
134417
134416
134416
134415
134414
134414
134413
134412
134412
134411
134410
134410
134409
134408
134408
134407
134406
134405
134405
134404
134403
134403
134402
134401
134401
134400
134399
134399
134398
134397
134397
134396
134395
134395
134394
134393
134393
134392
134392
134391
134391
134390
134390
134389
134388
134388
134388
134387
134387
134386
134386
134385
134385
134384
134384
134384
134383
134383
134383
134382
134382
134382
134381
134381
134381
134381
134380
134380
134380
134380
134379
134379
134379
134379
134379
134379
134378
134378
134378
134378
134378
134378
134378
134378
134378
134378
134378
134378
134378
134378
134378
134378
134378
134378
134378
134378
134378
134378
134378
134378
134378
134378
134378
134378
134378
134378
134378
134378
134378
134378
134379
134379
134379
134379
134379
134379
134379
134379
134379
134380
134380
134380
134380
134380
134380
134380
134380
134381
134381
134381
134381
134381
134381
134381
134381
134381
134382
134382
134382
134382
134382
134382
134382
134382
134383
134383
134383
134383
134383
134383
134383
134383
134383
134383
134384
134384
134384
134384
134384
134384
134384
134384
134384
134384
134384
134385
134385
134385
134385
134385
134385
134385
134385
134385
134385
134385
134385
134386
134386
134386
134386
134386
134386
134386
134386
134386
134386
134386
134386
134387
134387
134387
134387
134387
134387
134387
134387
134387
134387
134387
134387
134388
134388
134388
134388
134388
134388
134388
134388
134388
134388
134388
134389
134389
134389
134389
134389
134389
134389
134389
134389
134389
134390
134390
134390
134390
134390
134390
134390
134390
134390
134391
134391
134391
134391
134391
134391
134391
134391
134391
134392
134392
134392
134392
134392
134392
134392
134392
134392
134392
134393
134393
134393
134393
134393
134393
134393
134393
134393
134393
134394
134394
134394
134394
134394
134394
134394
134394
134394
134394
134394
134395
134395
134395
134395
134395
134395
134395
134395
134395
134395
134395
134395
134395
134395
134395
134396
134396
134396
134396
134396
134396
134396
134396
134396
134396
134396
134396
134396
134396
134396
134396
134396
134396
134396
134396
134396
134396
134396
134397
134397
134397
134397
134397
134397
134397
134397
134397
134397
134397
134397
134397
134397
134397
134397
134397
134397
134397
134397
134397
134397
134397
134397
134397
134397
134397
134397
134397
134397
134397
134397
134397
134397
134397
134397
134397
134397
134397
134397
134397
134397
134397
134397
134397
134397
134397
134397
134397
134397
134397
134397
134397
134397
134397
134397
134397
134397
134397
134397
134397
134397
134397
134397
134397
134397
134397
134397
134397
134397
134397
134397
134397
134397
134397
134397
134397
134397
134397
134397
134397
134397
134397
134398
134398
134398
134398
134398
134398
134398
134398
134398
134398
134398
134398
134398
134398
134398
134398
134398
134398
134398
134398
134398
134398
134398
134398
134398
134398
134398
134398
134398
134398
134398
134398
134398
134398
134398
134398
134398
134398
134398
134398
134398
134398
134398
134398
134398
134566
134564
134561
134557
134552
134545
134537
134527
134516
134504
134490
134474
134458
134440
134420
134399
134377
134354
134329
134304
134277
134249
134220
134191
134161
134131
134100
134070
134040
134010
133981
133952
133925
133899
133874
133851
133829
133809
133791
133774
133758
133744
133732
133721
133711
133702
133694
133688
133682
133677
133673
133669
133666
133663
133660
133658
133657
133655
133654
133653
133652
133651
133651
133650
133649
133649
133648
133648
133647
133647
133646
133646
133646
133645
133645
133644
133644
133643
133643
133642
133642
133641
133640
133640
133639
133639
133638
133637
133637
133636
133635
133635
133634
133634
133633
133632
133632
133631
133630
133630
133629
133628
133628
133627
133626
133626
133625
133625
133624
133623
133623
133622
133622
133621
133621
133620
133619
133619
133618
133618
133617
133617
133616
133616
133616
133615
133615
133614
133614
133614
133613
133613
133612
133612
133612
133612
133611
133611
133611
133610
133610
133610
133610
133609
133609
133609
133609
133609
133609
133608
133608
133608
133608
133608
133608
133608
133608
133608
133607
133607
133607
133607
133607
133607
133607
133607
133607
133607
133607
133607
133607
133607
133607
133607
133607
133608
133608
133608
133608
133608
133608
133608
133608
133608
133608
133608
133608
133609
133609
133609
133609
133609
133609
133609
133609
133609
133610
133610
133610
133610
133610
133610
133610
133610
133611
133611
133611
133611
133611
133611
133611
133611
133611
133612
133612
133612
133612
133612
133612
133612
133612
133612
133613
133613
133613
133613
133613
133613
133613
133613
133613
133614
133614
133614
133614
133614
133614
133614
133614
133614
133614
133614
133614
133615
133615
133615
133615
133615
133615
133615
133615
133615
133615
133615
133615
133616
133616
133616
133616
133616
133616
133616
133616
133616
133616
133616
133616
133617
133617
133617
133617
133617
133617
133617
133617
133617
133617
133617
133617
133618
133618
133618
133618
133618
133618
133618
133618
133618
133618
133619
133619
133619
133619
133619
133619
133619
133619
133619
133619
133620
133620
133620
133620
133620
133620
133620
133620
133620
133621
133621
133621
133621
133621
133621
133621
133621
133621
133621
133622
133622
133622
133622
133622
133622
133622
133622
133622
133623
133623
133623
133623
133623
133623
133623
133623
133623
133623
133623
133624
133624
133624
133624
133624
133624
133624
133624
133624
133624
133624
133624
133625
133625
133625
133625
133625
133625
133625
133625
133625
133625
133625
133625
133625
133625
133625
133625
133626
133626
133626
133626
133626
133626
133626
133626
133626
133626
133626
133626
133626
133626
133626
133626
133626
133626
133626
133626
133626
133626
133626
133626
133626
133626
133626
133626
133626
133626
133626
133627
133627
133627
133627
133627
133627
133627
133627
133627
133627
133627
133627
133627
133627
133627
133627
133627
133627
133627
133627
133627
133627
133627
133627
133627
133627
133627
133627
133627
133627
133627
133627
133627
133627
133627
133627
133627
133627
133627
133627
133627
133627
133627
133627
133627
133627
133627
133627
133627
133627
133627
133627
133627
133627
133627
133627
133627
133627
133627
133627
133627
133627
133627
133627
133627
133627
133627
133627
133627
133627
133627
133627
133627
133627
133627
133627
133627
133627
133627
133627
133627
133627
133627
133627
133627
133627
133627
133627
133627
133627
133627
133627
133627
133627
133627
133627
133627
133627
133627
133627
133627
133627
133627
133627
133627
133627
133627
133627
133627
133627
133627
133627
133627
133627
133627
133757
133756
133753
133749
133744
133738
133730
133721
133711
133699
133686
133672
133656
133639
133621
133602
133581
133559
133536
133512
133486
133460
133432
133404
133376
133347
133317
133287
133258
133228
133200
133172
133144
133118
133094
133070
133048
133028
133010
132993
132978
132964
132952
132941
132932
132923
132916
132910
132904
132900
132896
132893
132890
132887
132885
132884
132883
132881
132881
132880
132879
132879
132878
132878
132878
132877
132877