/*--------------------------------*- C++ -*----------------------------------*\
| =========                 |                                                 |
| \\      /  F ield         | OpenFOAM: The Open Source CFD Toolbox           |
|  \\    /   O peration     | Version:  v2012                                 |
|   \\  /    A nd           | Website:  www.openfoam.com                      |
|    \\/     M anipulation  |                                                 |
\*---------------------------------------------------------------------------*/
FoamFile
{
    version     2.0;
    format      ascii;
    class       volScalarField;
    location    "200";
    object      p_rgh;
}
// * * * * * * * * * * * * * * * * * * * * * * * * * * * * * * * * * * * * * //

dimensions      [1 -1 -2 0 0 0 0];


internalField   nonuniform List<scalar> 
65536
(
40522
40520.4
40517.1
40512.1
40505.5
40497.2
40487.2
40475.7
40462.4
40447.6
40431.1
40413.1
40393.6
40372.5
40350
40326.1
40300.9
40274.5
40247
40218.4
40189.1
40159
40128.3
40097.2
40065.9
40034.5
40003.3
39972.3
39941.8
39912
39883
39854.9
39827.8
39802
39777.5
39754.2
39732.4
39712
39693
39675.4
39659.3
39644.4
39630.9
39618.6
39607.4
39597.3
39588.2
39580.1
39572.8
39566.2
39560.4
39555.2
39550.5
39546.4
39542.7
39539.4
39536.4
39533.7
39531.3
39529.2
39527.2
39525.4
39523.7
39522.2
39520.7
39519.4
39518.1
39516.9
39515.7
39514.6
39513.6
39512.5
39511.5
39510.5
39509.5
39508.6
39507.6
39506.7
39505.7
39504.8
39503.9
39502.9
39502
39501.1
39500.2
39499.3
39498.4
39497.5
39496.6
39495.7
39494.8
39494
39493.1
39492.2
39491.4
39490.5
39489.7
39488.9
39488
39487.2
39486.4
39485.6
39484.9
39484.1
39483.3
39482.6
39481.8
39481.1
39480.4
39479.7
39479
39478.3
39477.7
39477
39476.4
39475.8
39475.1
39474.5
39474
39473.4
39472.8
39472.3
39471.8
39471.2
39470.7
39470.3
39469.8
39469.3
39468.9
39468.4
39468
39467.6
39467.2
39466.8
39466.5
39466.1
39465.8
39465.5
39465.2
39464.9
39464.6
39464.3
39464
39463.8
39463.6
39463.3
39463.1
39462.9
39462.7
39462.6
39462.4
39462.2
39462.1
39462
39461.8
39461.7
39461.6
39461.5
39461.4
39461.4
39461.3
39461.3
39461.2
39461.2
39461.2
39461.1
39461.1
39461.1
39461.1
39461.1
39461.1
39461.2
39461.2
39461.2
39461.3
39461.3
39461.4
39461.4
39461.5
39461.6
39461.7
39461.7
39461.8
39461.9
39462
39462.1
39462.2
39462.3
39462.4
39462.5
39462.6
39462.7
39462.8
39462.9
39463.1
39463.2
39463.3
39463.4
39463.5
39463.6
39463.8
39463.9
39464
39464.1
39464.3
39464.4
39464.5
39464.6
39464.7
39464.9
39465
39465.1
39465.2
39465.3
39465.5
39465.6
39465.7
39465.8
39465.9
39466
39466.1
39466.2
39466.3
39466.5
39466.6
39466.7
39466.8
39466.9
39467
39467.1
39467.2
39467.3
39467.4
39467.5
39467.5
39467.6
39467.7
39467.8
39467.9
39468
39468.1
39468.2
39468.3
39468.3
39468.4
39468.5
39468.6
39468.7
39468.8
39468.8
39468.9
39469
39469.1
39469.2
39469.2
39469.3
39469.4
39469.5
39469.6
39469.7
39469.7
39469.8
39469.9
39470
39470.1
39470.1
39470.2
39470.3
39470.4
39470.5
39470.6
39470.7
39470.8
39470.8
39470.9
39471
39471.1
39471.2
39471.3
39471.4
39471.5
39471.6
39471.7
39471.8
39471.9
39472
39472.1
39472.2
39472.3
39472.4
39472.5
39472.6
39472.7
39472.8
39472.9
39473
39473.1
39473.2
39473.3
39473.4
39473.6
39473.7
39473.8
39473.9
39474
39474.1
39474.2
39474.3
39474.4
39474.6
39474.7
39474.8
39474.9
39475
39475.1
39475.2
39475.3
39475.5
39475.6
39475.7
39475.8
39475.9
39476
39476.1
39476.2
39476.3
39476.4
39476.5
39476.6
39476.7
39476.8
39476.9
39477
39477.1
39477.2
39477.3
39477.4
39477.5
39477.6
39477.7
39477.8
39477.9
39478
39478.1
39478.2
39478.2
39478.3
39478.4
39478.5
39478.6
39478.6
39478.7
39478.8
39478.9
39478.9
39479
39479.1
39479.1
39479.2
39479.3
39479.3
39479.4
39479.4
39479.5
39479.6
39479.6
39479.7
39479.7
39479.8
39479.8
39479.9
39479.9
39480
39480
39480
39480.1
39480.1
39480.2
39480.2
39480.2
39480.3
39480.3
39480.3
39480.4
39480.4
39480.4
39480.4
39480.5
39480.5
39480.5
39480.5
39480.6
39480.6
39480.6
39480.6
39480.7
39480.7
39480.7
39480.7
39480.7
39480.7
39480.8
39480.8
39480.8
39480.8
39480.8
39480.8
39480.8
39480.9
39480.9
39480.9
39480.9
39480.9
39480.9
39480.9
39480.9
39481
39481
39481
39481
39481
39481
39481
39481
39481
39481
39481
39481
39481.1
39481.1
39481.1
39481.1
39481.1
39481.1
39481.1
39481.1
39481.1
39481.1
39481.1
39481.1
39481.1
39481.2
39481.2
39481.2
39481.2
39481.2
39481.2
39481.2
39481.2
39481.2
39481.2
39481.2
39481.2
39481.3
39481.3
39481.3
39481.3
39481.3
39481.3
39481.3
39481.3
39481.3
39481.3
39481.3
39481.3
39481.4
39481.4
39481.4
39481.4
39481.4
39481.4
39481.4
39481.4
39481.4
39481.4
39481.4
39481.4
39481.5
39481.5
39481.5
39481.5
39481.5
39481.5
39481.5
39481.5
39481.5
39481.5
39481.5
39481.5
39481.5
39481.5
39481.5
39481.6
39481.6
39481.6
39481.6
39481.6
39481.6
39481.6
39481.6
39481.6
39481.6
39481.6
39481.6
39481.6
39481.6
39481.6
39481.6
39481.6
39481.6
39481.6
39481.6
40517.5
40515.8
40512.5
40507.5
40500.9
40492.7
40482.7
40471.2
40458
40443.2
40426.8
40408.8
40389.3
40368.2
40345.8
40321.9
40296.7
40270.3
40242.9
40214.4
40185
40154.9
40124.2
40093.1
40061.8
40030.4
39999.1
39968.1
39937.6
39907.7
39878.6
39850.4
39823.4
39797.5
39772.9
39749.6
39727.8
39707.4
39688.4
39670.8
39654.6
39639.8
39626.2
39614
39602.8
39592.8
39583.7
39575.6
39568.3
39561.9
39556.1
39550.9
39546.3
39542.2
39538.5
39535.3
39532.3
39529.7
39527.4
39525.2
39523.3
39521.5
39519.9
39518.4
39516.9
39515.6
39514.4
39513.2
39512.1
39511
39509.9
39508.9
39507.9
39507
39506
39505
39504.1
39503.2
39502.3
39501.3
39500.4
39499.5
39498.6
39497.7
39496.8
39495.9
39495
39494.1
39493.3
39492.4
39491.5
39490.6
39489.8
39488.9
39488.1
39487.2
39486.4
39485.6
39484.8
39483.9
39483.1
39482.4
39481.6
39480.8
39480.1
39479.3
39478.6
39477.8
39477.1
39476.4
39475.8
39475.1
39474.4
39473.8
39473.1
39472.5
39471.9
39471.3
39470.7
39470.2
39469.6
39469.1
39468.5
39468
39467.5
39467
39466.6
39466.1
39465.6
39465.2
39464.8
39464.4
39464
39463.6
39463.3
39462.9
39462.6
39462.3
39461.9
39461.6
39461.4
39461.1
39460.8
39460.6
39460.3
39460.1
39459.9
39459.7
39459.5
39459.3
39459.2
39459
39458.9
39458.7
39458.6
39458.5
39458.4
39458.3
39458.2
39458.2
39458.1
39458.1
39458
39458
39457.9
39457.9
39457.9
39457.9
39457.9
39457.9
39457.9
39458
39458
39458
39458.1
39458.1
39458.2
39458.2
39458.3
39458.4
39458.5
39458.5
39458.6
39458.7
39458.8
39458.9
39459
39459.1
39459.2
39459.3
39459.4
39459.5
39459.6
39459.7
39459.9
39460
39460.1
39460.2
39460.3
39460.4
39460.6
39460.7
39460.8
39460.9
39461.1
39461.2
39461.3
39461.4
39461.5
39461.7
39461.8
39461.9
39462
39462.1
39462.3
39462.4
39462.5
39462.6
39462.7
39462.8
39462.9
39463
39463.2
39463.3
39463.4
39463.5
39463.6
39463.7
39463.8
39463.9
39464
39464.1
39464.2
39464.3
39464.3
39464.4
39464.5
39464.6
39464.7
39464.8
39464.9
39465
39465.1
39465.1
39465.2
39465.3
39465.4
39465.5
39465.6
39465.6
39465.7
39465.8
39465.9
39466
39466
39466.1
39466.2
39466.3
39466.4
39466.5
39466.5
39466.6
39466.7
39466.8
39466.9
39467
39467
39467.1
39467.2
39467.3
39467.4
39467.5
39467.6
39467.6
39467.7
39467.8
39467.9
39468
39468.1
39468.2
39468.3
39468.4
39468.5
39468.6
39468.7
39468.8
39468.9
39469
39469.1
39469.2
39469.3
39469.4
39469.5
39469.6
39469.7
39469.8
39469.9
39470
39470.1
39470.2
39470.4
39470.5
39470.6
39470.7
39470.8
39470.9
39471
39471.1
39471.2
39471.4
39471.5
39471.6
39471.7
39471.8
39471.9
39472
39472.1
39472.3
39472.4
39472.5
39472.6
39472.7
39472.8
39472.9
39473
39473.1
39473.2
39473.3
39473.4
39473.5
39473.6
39473.7
39473.8
39473.9
39474
39474.1
39474.2
39474.3
39474.4
39474.5
39474.6
39474.7
39474.8
39474.9
39475
39475
39475.1
39475.2
39475.3
39475.4
39475.4
39475.5
39475.6
39475.7
39475.7
39475.8
39475.9
39475.9
39476
39476.1
39476.1
39476.2
39476.2
39476.3
39476.4
39476.4
39476.5
39476.5
39476.6
39476.6
39476.7
39476.7
39476.8
39476.8
39476.8
39476.9
39476.9
39477
39477
39477
39477.1
39477.1
39477.1
39477.2
39477.2
39477.2
39477.2
39477.3
39477.3
39477.3
39477.3
39477.4
39477.4
39477.4
39477.4
39477.5
39477.5
39477.5
39477.5
39477.5
39477.5
39477.6
39477.6
39477.6
39477.6
39477.6
39477.6
39477.6
39477.7
39477.7
39477.7
39477.7
39477.7
39477.7
39477.7
39477.7
39477.7
39477.8
39477.8
39477.8
39477.8
39477.8
39477.8
39477.8
39477.8
39477.8
39477.8
39477.8
39477.9
39477.9
39477.9
39477.9
39477.9
39477.9
39477.9
39477.9
39477.9
39477.9
39477.9
39477.9
39477.9
39478
39478
39478
39478
39478
39478
39478
39478
39478
39478
39478
39478
39478.1
39478.1
39478.1
39478.1
39478.1
39478.1
39478.1
39478.1
39478.1
39478.1
39478.1
39478.1
39478.2
39478.2
39478.2
39478.2
39478.2
39478.2
39478.2
39478.2
39478.2
39478.2
39478.2
39478.2
39478.3
39478.3
39478.3
39478.3
39478.3
39478.3
39478.3
39478.3
39478.3
39478.3
39478.3
39478.3
39478.3
39478.3
39478.3
39478.4
39478.4
39478.4
39478.4
39478.4
39478.4
39478.4
39478.4
39478.4
39478.4
39478.4
39478.4
39478.4
39478.4
39478.4
39478.4
39478.4
39478.4
39478.4
39478.4
40508.2
40506.6
40503.3
40498.3
40491.8
40483.6
40473.7
40462.2
40449.1
40434.3
40418
40400.1
40380.7
40359.7
40337.3
40313.5
40288.4
40262.1
40234.7
40206.2
40176.9
40146.8
40116.1
40084.9
40053.6
40022.1
39990.7
39959.6
39929
39899
39869.8
39841.6
39814.4
39788.4
39763.8
39740.4
39718.5
39698.1
39679.1
39661.5
39645.3
39630.5
39617
39604.7
39593.7
39583.7
39574.7
39566.7
39559.5
39553.1
39547.4
39542.3
39537.8
39533.8
39530.2
39527.1
39524.2
39521.7
39519.4
39517.3
39515.5
39513.8
39512.2
39510.8
39509.4
39508.2
39507
39505.9
39504.8
39503.7
39502.7
39501.8
39500.8
39499.9
39499
39498
39497.1
39496.2
39495.3
39494.5
39493.6
39492.7
39491.8
39490.9
39490
39489.2
39488.3
39487.4
39486.6
39485.7
39484.8
39484
39483.1
39482.3
39481.5
39480.6
39479.8
39479
39478.2
39477.4
39476.6
39475.8
39475
39474.3
39473.5
39472.8
39472.1
39471.3
39470.6
39469.9
39469.3
39468.6
39467.9
39467.3
39466.7
39466
39465.4
39464.8
39464.3
39463.7
39463.1
39462.6
39462.1
39461.6
39461.1
39460.6
39460.1
39459.7
39459.2
39458.8
39458.4
39458
39457.6
39457.2
39456.8
39456.5
39456.2
39455.8
39455.5
39455.2
39454.9
39454.7
39454.4
39454.2
39453.9
39453.7
39453.5
39453.3
39453.1
39452.9
39452.8
39452.6
39452.5
39452.3
39452.2
39452.1
39452
39451.9
39451.8
39451.8
39451.7
39451.7
39451.6
39451.6
39451.5
39451.5
39451.5
39451.5
39451.5
39451.5
39451.5
39451.6
39451.6
39451.6
39451.7
39451.7
39451.8
39451.9
39451.9
39452
39452.1
39452.1
39452.2
39452.3
39452.4
39452.5
39452.6
39452.7
39452.8
39452.9
39453
39453.1
39453.2
39453.3
39453.5
39453.6
39453.7
39453.8
39453.9
39454.1
39454.2
39454.3
39454.4
39454.5
39454.7
39454.8
39454.9
39455
39455.2
39455.3
39455.4
39455.5
39455.6
39455.8
39455.9
39456
39456.1
39456.2
39456.3
39456.4
39456.5
39456.7
39456.8
39456.9
39457
39457.1
39457.2
39457.3
39457.4
39457.5
39457.6
39457.7
39457.8
39457.9
39458
39458.1
39458.1
39458.2
39458.3
39458.4
39458.5
39458.6
39458.7
39458.8
39458.8
39458.9
39459
39459.1
39459.2
39459.3
39459.3
39459.4
39459.5
39459.6
39459.7
39459.7
39459.8
39459.9
39460
39460.1
39460.2
39460.2
39460.3
39460.4
39460.5
39460.6
39460.7
39460.7
39460.8
39460.9
39461
39461.1
39461.2
39461.3
39461.3
39461.4
39461.5
39461.6
39461.7
39461.8
39461.9
39462
39462.1
39462.2
39462.3
39462.4
39462.5
39462.6
39462.7
39462.8
39462.9
39463
39463.1
39463.2
39463.3
39463.4
39463.5
39463.6
39463.8
39463.9
39464
39464.1
39464.2
39464.3
39464.4
39464.5
39464.6
39464.7
39464.9
39465
39465.1
39465.2
39465.3
39465.4
39465.5
39465.6
39465.8
39465.9
39466
39466.1
39466.2
39466.3
39466.4
39466.5
39466.6
39466.7
39466.8
39466.9
39467.1
39467.2
39467.3
39467.4
39467.5
39467.6
39467.7
39467.8
39467.9
39467.9
39468
39468.1
39468.2
39468.3
39468.4
39468.5
39468.6
39468.7
39468.7
39468.8
39468.9
39469
39469.1
39469.1
39469.2
39469.3
39469.3
39469.4
39469.5
39469.5
39469.6
39469.7
39469.7
39469.8
39469.9
39469.9
39470
39470
39470.1
39470.1
39470.2
39470.2
39470.3
39470.3
39470.4
39470.4
39470.4
39470.5
39470.5
39470.6
39470.6
39470.6
39470.7
39470.7
39470.7
39470.8
39470.8
39470.8
39470.9
39470.9
39470.9
39470.9
39471
39471
39471
39471
39471
39471.1
39471.1
39471.1
39471.1
39471.1
39471.2
39471.2
39471.2
39471.2
39471.2
39471.2
39471.2
39471.3
39471.3
39471.3
39471.3
39471.3
39471.3
39471.3
39471.3
39471.3
39471.4
39471.4
39471.4
39471.4
39471.4
39471.4
39471.4
39471.4
39471.4
39471.4
39471.4
39471.5
39471.5
39471.5
39471.5
39471.5
39471.5
39471.5
39471.5
39471.5
39471.5
39471.5
39471.5
39471.6
39471.6
39471.6
39471.6
39471.6
39471.6
39471.6
39471.6
39471.6
39471.6
39471.6
39471.6
39471.6
39471.7
39471.7
39471.7
39471.7
39471.7
39471.7
39471.7
39471.7
39471.7
39471.7
39471.7
39471.7
39471.8
39471.8
39471.8
39471.8
39471.8
39471.8
39471.8
39471.8
39471.8
39471.8
39471.8
39471.8
39471.9
39471.9
39471.9
39471.9
39471.9
39471.9
39471.9
39471.9
39471.9
39471.9
39471.9
39471.9
39471.9
39471.9
39472
39472
39472
39472
39472
39472
39472
39472
39472
39472
39472
39472
39472
39472
39472
39472
39472
39472
39472
39472
39472
39472
40494.6
40492.9
40489.6
40484.7
40478.2
40470.1
40460.3
40448.9
40435.8
40421.2
40405
40387.2
40367.9
40347
40324.7
40301
40275.9
40249.7
40222.3
40193.9
40164.6
40134.5
40103.8
40072.6
40041.1
40009.6
39978.1
39946.9
39916.1
39886
39856.6
39828.2
39800.9
39774.8
39750
39726.6
39704.6
39684.1
39665
39647.5
39631.3
39616.5
39603.1
39590.9
39579.9
39570
39561.2
39553.3
39546.2
39540
39534.4
39529.5
39525.1
39521.2
39517.8
39514.8
39512.1
39509.6
39507.5
39505.6
39503.8
39502.2
39500.8
39499.4
39498.2
39497
39495.9
39494.9
39493.9
39492.9
39492
39491.1
39490.2
39489.3
39488.4
39487.6
39486.7
39485.9
39485
39484.2
39483.3
39482.5
39481.6
39480.8
39479.9
39479.1
39478.2
39477.4
39476.5
39475.7
39474.9
39474
39473.2
39472.4
39471.6
39470.8
39469.9
39469.1
39468.3
39467.6
39466.8
39466
39465.3
39464.5
39463.8
39463
39462.3
39461.6
39460.9
39460.2
39459.5
39458.9
39458.2
39457.6
39457
39456.4
39455.8
39455.2
39454.6
39454
39453.5
39453
39452.4
39451.9
39451.4
39450.9
39450.5
39450
39449.6
39449.2
39448.7
39448.3
39448
39447.6
39447.2
39446.9
39446.5
39446.2
39445.9
39445.6
39445.3
39445.1
39444.8
39444.6
39444.3
39444.1
39443.9
39443.7
39443.5
39443.3
39443.2
39443
39442.9
39442.8
39442.6
39442.5
39442.4
39442.3
39442.3
39442.2
39442.1
39442.1
39442
39442
39442
39442
39442
39441.9
39442
39442
39442
39442
39442
39442.1
39442.1
39442.2
39442.2
39442.3
39442.4
39442.4
39442.5
39442.6
39442.7
39442.8
39442.8
39442.9
39443
39443.1
39443.2
39443.3
39443.5
39443.6
39443.7
39443.8
39443.9
39444
39444.1
39444.3
39444.4
39444.5
39444.6
39444.7
39444.9
39445
39445.1
39445.2
39445.4
39445.5
39445.6
39445.7
39445.8
39446
39446.1
39446.2
39446.3
39446.4
39446.5
39446.7
39446.8
39446.9
39447
39447.1
39447.2
39447.3
39447.4
39447.5
39447.6
39447.7
39447.8
39447.9
39448
39448.1
39448.2
39448.3
39448.4
39448.5
39448.6
39448.7
39448.8
39448.9
39449
39449
39449.1
39449.2
39449.3
39449.4
39449.5
39449.5
39449.6
39449.7
39449.8
39449.9
39450
39450
39450.1
39450.2
39450.3
39450.4
39450.4
39450.5
39450.6
39450.7
39450.8
39450.9
39450.9
39451
39451.1
39451.2
39451.3
39451.4
39451.4
39451.5
39451.6
39451.7
39451.8
39451.9
39452
39452.1
39452.2
39452.3
39452.4
39452.5
39452.6
39452.6
39452.7
39452.8
39452.9
39453
39453.1
39453.2
39453.4
39453.5
39453.6
39453.7
39453.8
39453.9
39454
39454.1
39454.2
39454.3
39454.4
39454.5
39454.6
39454.8
39454.9
39455
39455.1
39455.2
39455.3
39455.4
39455.5
39455.6
39455.8
39455.9
39456
39456.1
39456.2
39456.3
39456.4
39456.5
39456.6
39456.8
39456.9
39457
39457.1
39457.2
39457.3
39457.4
39457.5
39457.6
39457.7
39457.8
39457.9
39458
39458.1
39458.2
39458.3
39458.4
39458.5
39458.6
39458.7
39458.8
39458.8
39458.9
39459
39459.1
39459.2
39459.3
39459.3
39459.4
39459.5
39459.6
39459.6
39459.7
39459.8
39459.9
39459.9
39460
39460.1
39460.1
39460.2
39460.2
39460.3
39460.4
39460.4
39460.5
39460.5
39460.6
39460.6
39460.7
39460.7
39460.8
39460.8
39460.8
39460.9
39460.9
39461
39461
39461
39461.1
39461.1
39461.1
39461.2
39461.2
39461.2
39461.3
39461.3
39461.3
39461.4
39461.4
39461.4
39461.4
39461.4
39461.5
39461.5
39461.5
39461.5
39461.5
39461.6
39461.6
39461.6
39461.6
39461.6
39461.6
39461.7
39461.7
39461.7
39461.7
39461.7
39461.7
39461.7
39461.8
39461.8
39461.8
39461.8
39461.8
39461.8
39461.8
39461.8
39461.8
39461.8
39461.9
39461.9
39461.9
39461.9
39461.9
39461.9
39461.9
39461.9
39461.9
39461.9
39461.9
39461.9
39462
39462
39462
39462
39462
39462
39462
39462
39462
39462
39462
39462
39462
39462.1
39462.1
39462.1
39462.1
39462.1
39462.1
39462.1
39462.1
39462.1
39462.1
39462.1
39462.1
39462.2
39462.2
39462.2
39462.2
39462.2
39462.2
39462.2
39462.2
39462.2
39462.2
39462.2
39462.2
39462.3
39462.3
39462.3
39462.3
39462.3
39462.3
39462.3
39462.3
39462.3
39462.3
39462.3
39462.3
39462.4
39462.4
39462.4
39462.4
39462.4
39462.4
39462.4
39462.4
39462.4
39462.4
39462.4
39462.4
39462.4
39462.4
39462.4
39462.4
39462.4
39462.4
39462.5
39462.5
39462.5
39462.5
39462.5
39462.5
39462.5
39462.5
39462.5
39462.5
39462.5
39462.5
40479.4
40477.7
40474.4
40469.5
40463
40454.9
40445.1
40433.6
40420.5
40405.8
40389.6
40371.8
40352.4
40331.5
40309.1
40285.3
40260.2
40233.9
40206.5
40178
40148.6
40118.4
40087.5
40056.2
40024.6
39992.9
39961.2
39929.8
39898.9
39868.5
39839
39810.4
39782.9
39756.6
39731.6
39708.1
39686
39665.4
39646.3
39628.7
39612.5
39597.8
39584.5
39572.4
39561.5
39551.8
39543.1
39535.4
39528.5
39522.4
39517
39512.3
39508.1
39504.5
39501.2
39498.4
39495.8
39493.6
39491.6
39489.8
39488.2
39486.8
39485.5
39484.3
39483.2
39482.1
39481.2
39480.2
39479.3
39478.5
39477.6
39476.8
39476
39475.2
39474.4
39473.6
39472.8
39472
39471.2
39470.5
39469.7
39468.9
39468.1
39467.3
39466.4
39465.6
39464.8
39464
39463.2
39462.4
39461.6
39460.8
39460
39459.2
39458.4
39457.6
39456.8
39456
39455.3
39454.5
39453.7
39453
39452.2
39451.5
39450.8
39450
39449.3
39448.6
39448
39447.3
39446.6
39446
39445.3
39444.7
39444.1
39443.5
39442.9
39442.3
39441.7
39441.2
39440.6
39440.1
39439.6
39439.1
39438.6
39438.1
39437.7
39437.2
39436.8
39436.3
39435.9
39435.5
39435.2
39434.8
39434.4
39434.1
39433.8
39433.4
39433.1
39432.8
39432.6
39432.3
39432
39431.8
39431.6
39431.4
39431.1
39430.9
39430.8
39430.6
39430.4
39430.3
39430.1
39430
39429.9
39429.8
39429.7
39429.6
39429.5
39429.5
39429.4
39429.3
39429.3
39429.3
39429.2
39429.2
39429.2
39429.2
39429.2
39429.2
39429.3
39429.3
39429.3
39429.4
39429.4
39429.4
39429.5
39429.6
39429.6
39429.7
39429.8
39429.9
39429.9
39430
39430.1
39430.2
39430.3
39430.4
39430.5
39430.6
39430.7
39430.8
39431
39431.1
39431.2
39431.3
39431.4
39431.5
39431.7
39431.8
39431.9
39432
39432.2
39432.3
39432.4
39432.5
39432.6
39432.8
39432.9
39433
39433.1
39433.3
39433.4
39433.5
39433.6
39433.7
39433.8
39434
39434.1
39434.2
39434.3
39434.4
39434.5
39434.6
39434.7
39434.8
39434.9
39435
39435.1
39435.2
39435.3
39435.4
39435.5
39435.6
39435.7
39435.8
39435.9
39436
39436.1
39436.2
39436.2
39436.3
39436.4
39436.5
39436.6
39436.7
39436.8
39436.8
39436.9
39437
39437.1
39437.2
39437.2
39437.3
39437.4
39437.5
39437.6
39437.7
39437.7
39437.8
39437.9
39438
39438.1
39438.1
39438.2
39438.3
39438.4
39438.5
39438.6
39438.7
39438.7
39438.8
39438.9
39439
39439.1
39439.2
39439.3
39439.4
39439.5
39439.6
39439.7
39439.7
39439.8
39439.9
39440
39440.1
39440.2
39440.3
39440.4
39440.5
39440.6
39440.7
39440.9
39441
39441.1
39441.2
39441.3
39441.4
39441.5
39441.6
39441.7
39441.8
39441.9
39442
39442.2
39442.3
39442.4
39442.5
39442.6
39442.7
39442.8
39442.9
39443
39443.2
39443.3
39443.4
39443.5
39443.6
39443.7
39443.8
39443.9
39444
39444.2
39444.3
39444.4
39444.5
39444.6
39444.7
39444.8
39444.9
39445
39445.1
39445.2
39445.3
39445.4
39445.5
39445.6
39445.7
39445.8
39445.9
39446
39446
39446.1
39446.2
39446.3
39446.4
39446.5
39446.5
39446.6
39446.7
39446.8
39446.9
39446.9
39447
39447.1
39447.1
39447.2
39447.3
39447.3
39447.4
39447.5
39447.5
39447.6
39447.6
39447.7
39447.7
39447.8
39447.9
39447.9
39447.9
39448
39448
39448.1
39448.1
39448.2
39448.2
39448.2
39448.3
39448.3
39448.4
39448.4
39448.4
39448.5
39448.5
39448.5
39448.6
39448.6
39448.6
39448.6
39448.7
39448.7
39448.7
39448.7
39448.7
39448.8
39448.8
39448.8
39448.8
39448.8
39448.9
39448.9
39448.9
39448.9
39448.9
39448.9
39449
39449
39449
39449
39449
39449
39449
39449
39449.1
39449.1
39449.1
39449.1
39449.1
39449.1
39449.1
39449.1
39449.1
39449.1
39449.2
39449.2
39449.2
39449.2
39449.2
39449.2
39449.2
39449.2
39449.2
39449.2
39449.2
39449.2
39449.2
39449.3
39449.3
39449.3
39449.3
39449.3
39449.3
39449.3
39449.3
39449.3
39449.3
39449.3
39449.3
39449.4
39449.4
39449.4
39449.4
39449.4
39449.4
39449.4
39449.4
39449.4
39449.4
39449.4
39449.4
39449.5
39449.5
39449.5
39449.5
39449.5
39449.5
39449.5
39449.5
39449.5
39449.5
39449.5
39449.6
39449.6
39449.6
39449.6
39449.6
39449.6
39449.6
39449.6
39449.6
39449.6
39449.6
39449.6
39449.6
39449.7
39449.7
39449.7
39449.7
39449.7
39449.7
39449.7
39449.7
39449.7
39449.7
39449.7
39449.7
39449.7
39449.7
39449.7
39449.7
39449.7
39449.7
39449.7
39449.7
39449.7
39449.8
39449.8
39449.8
39449.8
39449.8
39449.8
39449.8
40472.8
40470.9
40467.3
40462.2
40455.7
40447.4
40437.2
40425.4
40411.8
40396.6
40379.8
40361.5
40341.6
40320.1
40296.9
40272.3
40246.4
40219.3
40191.1
40161.9
40131.8
40100.9
40069.3
40037.3
40005.1
39972.8
39940.7
39908.8
39877.4
39846.7
39816.8
39787.9
39760.2
39733.6
39708.5
39684.7
39662.5
39641.8
39622.7
39605.1
39589
39574.3
39561.1
39549.2
39538.5
39528.9
39520.4
39512.9
39506.3
39500.5
39495.3
39490.8
39486.9
39483.5
39480.5
39477.9
39475.6
39473.6
39471.8
39470.2
39468.8
39467.6
39466.4
39465.4
39464.5
39463.6
39462.7
39462
39461.2
39460.5
39459.7
39459
39458.3
39457.6
39456.9
39456.2
39455.5
39454.8
39454.1
39453.4
39452.6
39451.9
39451.2
39450.4
39449.7
39448.9
39448.1
39447.4
39446.6
39445.8
39445.1
39444.3
39443.5
39442.7
39442
39441.2
39440.5
39439.7
39438.9
39438.2
39437.5
39436.7
39436
39435.3
39434.6
39433.9
39433.2
39432.5
39431.8
39431.2
39430.5
39429.9
39429.2
39428.6
39428
39427.4
39426.8
39426.3
39425.7
39425.1
39424.6
39424.1
39423.6
39423.1
39422.6
39422.1
39421.7
39421.2
39420.8
39420.4
39420
39419.6
39419.2
39418.8
39418.5
39418.2
39417.8
39417.5
39417.2
39416.9
39416.6
39416.4
39416.1
39415.9
39415.7
39415.4
39415.2
39415.1
39414.9
39414.7
39414.5
39414.4
39414.3
39414.1
39414
39413.9
39413.8
39413.7
39413.6
39413.6
39413.5
39413.5
39413.4
39413.4
39413.4
39413.4
39413.4
39413.3
39413.4
39413.4
39413.4
39413.4
39413.5
39413.5
39413.5
39413.6
39413.6
39413.7
39413.8
39413.8
39413.9
39414
39414.1
39414.2
39414.3
39414.4
39414.5
39414.6
39414.7
39414.8
39414.9
39415
39415.1
39415.2
39415.3
39415.5
39415.6
39415.7
39415.8
39415.9
39416.1
39416.2
39416.3
39416.4
39416.6
39416.7
39416.8
39416.9
39417
39417.2
39417.3
39417.4
39417.5
39417.6
39417.8
39417.9
39418
39418.1
39418.2
39418.3
39418.4
39418.6
39418.7
39418.8
39418.9
39419
39419.1
39419.2
39419.3
39419.4
39419.5
39419.6
39419.7
39419.8
39419.9
39420
39420.1
39420.1
39420.2
39420.3
39420.4
39420.5
39420.6
39420.7
39420.8
39420.8
39420.9
39421
39421.1
39421.2
39421.3
39421.3
39421.4
39421.5
39421.6
39421.7
39421.7
39421.8
39421.9
39422
39422.1
39422.1
39422.2
39422.3
39422.4
39422.5
39422.6
39422.7
39422.7
39422.8
39422.9
39423
39423.1
39423.2
39423.3
39423.4
39423.4
39423.5
39423.6
39423.7
39423.8
39423.9
39424
39424.1
39424.2
39424.3
39424.4
39424.5
39424.6
39424.7
39424.8
39424.9
39425
39425.1
39425.2
39425.3
39425.4
39425.6
39425.7
39425.8
39425.9
39426
39426.1
39426.2
39426.3
39426.4
39426.5
39426.7
39426.8
39426.9
39427
39427.1
39427.2
39427.3
39427.4
39427.5
39427.7
39427.8
39427.9
39428
39428.1
39428.2
39428.3
39428.4
39428.5
39428.6
39428.7
39428.8
39428.9
39429
39429.2
39429.3
39429.4
39429.5
39429.5
39429.6
39429.7
39429.8
39429.9
39430
39430.1
39430.2
39430.3
39430.4
39430.5
39430.5
39430.6
39430.7
39430.8
39430.9
39430.9
39431
39431.1
39431.2
39431.2
39431.3
39431.4
39431.4
39431.5
39431.6
39431.6
39431.7
39431.7
39431.8
39431.8
39431.9
39432
39432
39432.1
39432.1
39432.1
39432.2
39432.2
39432.3
39432.3
39432.4
39432.4
39432.4
39432.5
39432.5
39432.5
39432.6
39432.6
39432.6
39432.7
39432.7
39432.7
39432.8
39432.8
39432.8
39432.8
39432.9
39432.9
39432.9
39432.9
39432.9
39433
39433
39433
39433
39433
39433
39433.1
39433.1
39433.1
39433.1
39433.1
39433.1
39433.1
39433.2
39433.2
39433.2
39433.2
39433.2
39433.2
39433.2
39433.2
39433.2
39433.3
39433.3
39433.3
39433.3
39433.3
39433.3
39433.3
39433.3
39433.3
39433.3
39433.3
39433.4
39433.4
39433.4
39433.4
39433.4
39433.4
39433.4
39433.4
39433.4
39433.4
39433.4
39433.4
39433.5
39433.5
39433.5
39433.5
39433.5
39433.5
39433.5
39433.5
39433.5
39433.5
39433.5
39433.5
39433.6
39433.6
39433.6
39433.6
39433.6
39433.6
39433.6
39433.6
39433.6
39433.6
39433.6
39433.6
39433.7
39433.7
39433.7
39433.7
39433.7
39433.7
39433.7
39433.7
39433.7
39433.7
39433.7
39433.8
39433.8
39433.8
39433.8
39433.8
39433.8
39433.8
39433.8
39433.8
39433.8
39433.8
39433.8
39433.8
39433.8
39433.9
39433.9
39433.9
39433.9
39433.9
39433.9
39433.9
39433.9
39433.9
39433.9
39433.9
39433.9
39433.9
39433.9
39433.9
39433.9
39433.9
39433.9
39433.9
39433.9
39433.9
39433.9
40488
40485.8
40481.6
40476.1
40469.7
40460.9
40450.1
40437.5
40422.9
40406.7
40388.9
40369.5
40348.3
40325.3
40300.4
40273.9
40246
40216.9
40186.7
40155.4
40123.2
40090.1
40056.3
40022.1
39987.9
39953.6
39919.7
39886.3
39853.6
39821.7
39790.9
39761.3
39732.9
39706
39680.5
39656.5
39634.1
39613.3
39594.1
39576.5
39560.5
39546
39532.9
39521.1
39510.6
39501.3
39493.1
39485.9
39479.6
39474
39469.2
39465
39461.4
39458.3
39455.6
39453.3
39451.3
39449.5
39448
39446.7
39445.5
39444.5
39443.6
39442.8
39442
39441.3
39440.7
39440.1
39439.5
39438.9
39438.3
39437.7
39437.1
39436.6
39436
39435.4
39434.8
39434.2
39433.5
39432.9
39432.2
39431.6
39430.9
39430.2
39429.5
39428.8
39428.1
39427.4
39426.7
39426
39425.2
39424.5
39423.8
39423
39422.3
39421.6
39420.8
39420.1
39419.4
39418.7
39418
39417.3
39416.5
39415.9
39415.2
39414.5
39413.8
39413.1
39412.5
39411.8
39411.2
39410.6
39410
39409.3
39408.8
39408.2
39407.6
39407
39406.5
39405.9
39405.4
39404.9
39404.4
39403.9
39403.4
39403
39402.5
39402.1
39401.7
39401.3
39400.9
39400.5
39400.1
39399.7
39399.4
39399.1
39398.7
39398.4
39398.1
39397.8
39397.6
39397.3
39397.1
39396.8
39396.6
39396.4
39396.2
39396
39395.8
39395.7
39395.5
39395.4
39395.2
39395.1
39395
39394.9
39394.8
39394.7
39394.6
39394.6
39394.5
39394.5
39394.4
39394.4
39394.4
39394.3
39394.3
39394.3
39394.3
39394.4
39394.4
39394.4
39394.5
39394.5
39394.5
39394.6
39394.6
39394.7
39394.8
39394.9
39394.9
39395
39395.1
39395.2
39395.3
39395.4
39395.5
39395.6
39395.7
39395.8
39395.9
39396
39396.1
39396.2
39396.4
39396.5
39396.6
39396.7
39396.8
39397
39397.1
39397.2
39397.3
39397.5
39397.6
39397.7
39397.8
39397.9
39398.1
39398.2
39398.3
39398.4
39398.6
39398.7
39398.8
39398.9
39399
39399.1
39399.2
39399.4
39399.5
39399.6
39399.7
39399.8
39399.9
39400
39400.1
39400.2
39400.3
39400.4
39400.5
39400.6
39400.7
39400.8
39400.9
39401
39401.1
39401.2
39401.3
39401.4
39401.4
39401.5
39401.6
39401.7
39401.8
39401.9
39402
39402
39402.1
39402.2
39402.3
39402.4
39402.4
39402.5
39402.6
39402.7
39402.8
39402.9
39402.9
39403
39403.1
39403.2
39403.3
39403.3
39403.4
39403.5
39403.6
39403.7
39403.8
39403.9
39403.9
39404
39404.1
39404.2
39404.3
39404.4
39404.5
39404.6
39404.7
39404.8
39404.9
39404.9
39405
39405.1
39405.2
39405.3
39405.4
39405.5
39405.6
39405.7
39405.8
39405.9
39406.1
39406.2
39406.3
39406.4
39406.5
39406.6
39406.7
39406.8
39406.9
39407
39407.1
39407.2
39407.3
39407.5
39407.6
39407.7
39407.8
39407.9
39408
39408.1
39408.2
39408.3
39408.5
39408.6
39408.7
39408.8
39408.9
39409
39409.1
39409.2
39409.3
39409.4
39409.6
39409.7
39409.8
39409.9
39410
39410.1
39410.2
39410.3
39410.4
39410.5
39410.6
39410.7
39410.8
39410.9
39410.9
39411
39411.1
39411.2
39411.3
39411.4
39411.5
39411.6
39411.6
39411.7
39411.8
39411.9
39412
39412
39412.1
39412.2
39412.2
39412.3
39412.4
39412.4
39412.5
39412.6
39412.6
39412.7
39412.7
39412.8
39412.9
39412.9
39413
39413
39413.1
39413.1
39413.2
39413.2
39413.2
39413.3
39413.3
39413.4
39413.4
39413.5
39413.5
39413.5
39413.6
39413.6
39413.6
39413.7
39413.7
39413.7
39413.7
39413.8
39413.8
39413.8
39413.8
39413.9
39413.9
39413.9
39413.9
39414
39414
39414
39414
39414
39414
39414.1
39414.1
39414.1
39414.1
39414.1
39414.1
39414.1
39414.2
39414.2
39414.2
39414.2
39414.2
39414.2
39414.2
39414.2
39414.3
39414.3
39414.3
39414.3
39414.3
39414.3
39414.3
39414.3
39414.3
39414.3
39414.3
39414.4
39414.4
39414.4
39414.4
39414.4
39414.4
39414.4
39414.4
39414.4
39414.4
39414.4
39414.4
39414.5
39414.5
39414.5
39414.5
39414.5
39414.5
39414.5
39414.5
39414.5
39414.5
39414.5
39414.5
39414.6
39414.6
39414.6
39414.6
39414.6
39414.6
39414.6
39414.6
39414.6
39414.6
39414.6
39414.7
39414.7
39414.7
39414.7
39414.7
39414.7
39414.7
39414.7
39414.7
39414.7
39414.7
39414.7
39414.8
39414.8
39414.8
39414.8
39414.8
39414.8
39414.8
39414.8
39414.8
39414.8
39414.8
39414.8
39414.8
39414.9
39414.9
39414.9
39414.9
39414.9
39414.9
39414.9
39414.9
39414.9
39414.9
39414.9
39414.9
39414.9
39414.9
39414.9
39414.9
39414.9
39414.9
39414.9
39414.9
39414.9
39414.9
39414.9
39414.9
39414.9
40522.8
40520.6
40516
40510.3
40504
40494.9
40483.7
40470.7
40455.4
40438.3
40419.8
40399.6
40377.3
40352.8
40326.2
40297.6
40267.5
40236.1
40203.3
40169.2
40133.8
40097.1
40059.5
40021.4
39983
39944.8
39906.9
39869.7
39833.5
39798.5
39765
39733.1
39703
39674.6
39648.2
39623.6
39600.8
39579.8
39560.5
39543
39527
39512.6
39499.7
39488.2
39478
39469
39461.1
39454.2
39448.3
39443.1
39438.7
39434.9
39431.7
39428.9
39426.6
39424.6
39422.9
39421.5
39420.3
39419.3
39418.4
39417.7
39417
39416.4
39415.9
39415.5
39415
39414.6
39414.2
39413.8
39413.4
39412.9
39412.5
39412.1
39411.6
39411.1
39410.7
39410.1
39409.6
39409.1
39408.5
39407.9
39407.4
39406.8
39406.1
39405.5
39404.9
39404.2
39403.5
39402.9
39402.2
39401.5
39400.8
39400.1
39399.4
39398.7
39398.1
39397.4
39396.7
39396
39395.3
39394.6
39393.9
39393.3
39392.6
39391.9
39391.3
39390.6
39390
39389.4
39388.8
39388.1
39387.5
39386.9
39386.4
39385.8
39385.2
39384.7
39384.2
39383.6
39383.1
39382.6
39382.1
39381.6
39381.2
39380.7
39380.3
39379.8
39379.4
39379
39378.6
39378.3
39377.9
39377.5
39377.2
39376.9
39376.5
39376.2
39375.9
39375.7
39375.4
39375.1
39374.9
39374.7
39374.4
39374.2
39374
39373.9
39373.7