/*--------------------------------*- C++ -*----------------------------------*\
| =========                 |                                                 |
| \\      /  F ield         | OpenFOAM: The Open Source CFD Toolbox           |
|  \\    /   O peration     | Version:  v2012                                 |
|   \\  /    A nd           | Website:  www.openfoam.com                      |
|    \\/     M anipulation  |                                                 |
\*---------------------------------------------------------------------------*/
FoamFile
{
    version     2.0;
    format      ascii;
    class       surfaceScalarField;
    location    "200";
    object      phi;
}
// * * * * * * * * * * * * * * * * * * * * * * * * * * * * * * * * * * * * * //

dimensions      [1 0 -1 0 0 0 0];
oriented        oriented;


internalField   nonuniform List<scalar> 
130432
(
78.3301
-78.6836
156.664
-78.4385
234.835
-78.2774
312.777
-78.05
390.48
-77.8132
467.808
-77.4418
544.687
-76.9953
621.014
-76.4459
696.668
-75.7785
771.55
-75.0094
845.547
-74.1289
918.548
-73.1368
990.402
-71.9949
1060.94
-70.6862
1129.99
-69.1903
1197.35
-67.5124
1262.85
-65.659
1326.34
-63.6369
1387.62
-61.4415
1446.53
-59.0598
1502.85
-56.4793
1556.39
-53.6919
1606.94
-50.7005
1654.31
-47.5132
1698.32
-44.145
1738.8
-40.6114
1775.61
-36.9322
1808.62
-33.1284
1837.74
-29.2248
1862.9
-25.247
1884.04
-21.2237
1901.15
-17.184
1914.26
-13.159
1923.39
-9.17984
1928.64
-5.27808
1930.1
-1.4835
1927.92
2.17615
1922.25
5.67642
1913.27
8.99617
1901.17
12.1182
1886.18
15.0289
1868.5
17.7188
1848.37
20.1819
1826.01
22.4158
1801.64
24.4213
1775.51
26.2019
1747.81
27.7637
1718.76
29.1146
1688.57
30.2642
1657.42
31.2233
1625.48
32.0036
1592.93
32.6173
1559.93
33.0771
1526.6
33.3956
1493.08
33.5852
1459.48
33.6581
1425.92
33.6261
1392.47
33.5003
1359.24
33.2916
1326.28
33.0097
1293.66
32.664
1261.44
32.2632
1229.67
31.8152
1198.38
31.3272
1167.61
30.8058
1137.39
30.2569
1107.74
29.686
1078.67
29.0977
1050.2
28.4965
1022.34
27.8859
995.089
27.2694
968.46
26.6497
942.45
26.0294
917.058
25.4107
892.28
24.7954
868.111
24.1851
844.545
23.5811
821.575
22.9845
799.193
22.3963
777.389
21.8172
756.155
21.2478
735.479
20.6887
715.352
20.1401
695.762
19.6025
676.699
19.076
658.152
18.5608
640.108
18.0569
622.557
17.5645
605.487
17.0835
588.887
16.614
572.745
16.1557
557.051
15.7088
541.793
15.2729
526.961
14.8482
512.542
14.4342
498.528
14.0311
484.906
13.6385
471.667
13.2562
458.8
12.8842
446.296
12.5223
434.144
12.1701
422.336
11.8276
410.86
11.4945
399.71
11.1706
388.874
10.8557
378.345
10.5497
368.113
10.2523
358.171
9.96321
348.511
9.68237
339.123
9.40951
330.001
9.14444
321.136
8.88696
312.522
8.63687
304.151
8.39397
296.016
8.15807
288.111
7.92898
280.428
7.70652
272.961
7.4905
265.704
7.28074
258.651
7.07706
251.796
6.8793
245.133
6.68728
238.657
6.50084
232.361
6.31982
226.242
6.14406
220.293
5.97341
214.51
5.80772
208.887
5.64684
203.421
5.49064
198.106
5.33896
192.939
5.19168
187.915
5.04868
183.029
4.90981
178.278
4.77496
173.658
4.644
169.165
4.51683
164.796
4.39332
160.546
4.27337
156.412
4.15687
152.392
4.04372
148.481
3.93381
144.676
3.82705
140.976
3.72335
137.375
3.62261
133.873
3.52474
130.465
3.42966
127.149
3.33728
123.923
3.24753
120.783
3.16032
117.729
3.07557
114.756
2.99323
111.863
2.9132
109.047
2.83543
106.307
2.75984
103.64
2.68638
101.044
2.61498
98.517
2.54557
96.0573
2.4781
93.6629
2.41251
91.332
2.34875
89.0627
2.28676
86.8534
2.22649
84.7024
2.16789
82.6081
2.11091
80.5689
2.0555
78.5833
2.00162
76.6498
1.94922
74.767
1.89827
72.9334
1.84871
71.1478
1.8005
69.4089
1.75362
67.7152
1.70801
66.0657
1.66365
64.459
1.62049
62.8941
1.57851
61.3698
1.53766
59.885
1.49793
58.4387
1.45926
57.0297
1.42164
55.6571
1.38504
54.32
1.34942
53.0173
1.31476
51.7482
1.28103
50.5117
1.24821
49.307
1.21626
48.1332
1.18517
46.9895
1.15491
45.8751
1.12545
44.7893
1.09679
43.7312
1.06888
42.7002
1.04171
41.6955
1.01527
40.7164
0.989524
39.7623
0.964461
38.8326
0.940061
37.9265
0.916305
37.0434
0.893175
36.1828
0.870655
35.3441
0.848726
34.5266
0.827374
33.73
0.806583
32.9535
0.786336
32.1967
0.766619
31.4591
0.747418
30.7401
0.728718
30.0394
0.710506
29.3563
0.692769
28.6906
0.675494
28.0416
0.658667
27.4091
0.642278
26.7925
0.626314
26.1915
0.610764
25.6056
0.595616
25.0345
0.58086
24.4778
0.566485
23.9351
0.55248
23.4061
0.538837
22.8904
0.525545
22.3877
0.512595
21.8976
0.499978
21.4198
0.487684
20.954
0.475706
20.5
0.464034
20.0573
0.452661
19.6257
0.441579
19.205
0.430779
18.7948
0.420255
18.3948
0.409999
18.0049
0.400004
17.6247
0.390262
17.254
0.380769
16.8926
0.371516
16.5402
0.362497
16.1966
0.353707
15.8616
0.345139
15.5349
0.336787
15.2164
0.328646
14.9057
0.32071
14.6028
0.312974
14.3074
0.305433
14.0193
0.298081
13.7384
0.290914
13.4644
0.283926
13.1971
0.277113
12.9365
0.270471
12.6823
0.263995
12.4343
0.25768
12.1924
0.251523
11.9565
0.24552
11.7263
0.239666
11.5018
0.233958
11.2827
0.228391
11.069
0.222963
10.8604
0.21767
10.6569
0.212507
10.4584
0.207473
10.2646
0.202563
10.0755
0.197775
9.89098
0.193105
9.71086
0.18855
9.53504
0.184108
9.36342
0.179775
9.19588
0.175549
9.03231
0.171428
8.87261
0.167408
8.71667
0.163486
8.5644
0.159662
8.41569
0.155931
8.27045
0.152292
8.12859
0.148742
7.99002
0.14528
7.85465
0.141903
7.7224
0.138609
7.59317
0.135396
7.4669
0.132262
7.34349
0.129206
7.22288
0.126224
7.10499
0.123316
6.98975
0.120479
6.87708
0.117713
6.76692
0.115014
6.6592
0.112383
6.55386
0.109816
6.45083
0.107313
6.35005
0.104872
6.25146
0.102492
6.155
0.100171
6.06062
0.0979071
5.96827
0.0957002
5.87788
0.0935483
5.78941
0.0914504
5.7028
0.0894051
5.61802
0.0874113
5.535
0.0854678
5.45371
0.0835734
5.3741
0.0817271
5.29613
0.0799277
5.21975
0.0781743
5.14493
0.0764657
5.07162
0.074801
4.99979
0.0731792
4.92941
0.0715993
4.86042
0.0700605
4.79281
0.0685618
4.72653
0.0671024
4.66155
0.0656813
4.59785
0.0642978
4.53538
0.0629509
4.47413
0.06164
4.41406
0.0603642
4.35515
0.0591228
4.29736
0.0579149
4.24068
0.0567399
4.18507
0.0555971
4.13051
0.0544856
4.07699
0.0534049
4.02447
0.0523543
3.97293
0.051333
3.92235
0.0503405
3.87272
0.049376
3.824
0.048439
3.77619
0.0475288
3.72926
0.0466448
3.6832
0.0457865
3.63799
0.0449531
3.5936
0.0441442
3.55003
0.0433592
3.50726
0.0425974
3.46527
0.0418584
3.42404
0.0411416
3.38357
0.0404464
3.34384
0.0397723
3.30483
0.0391189
3.26653
0.0384854
3.22894
0.0378715
3.19202
0.0372767
3.15579
0.0367003
3.12021
0.036142
3.08528
0.0356012
3.051
0.0350775
3.01734
0.0345704
2.98429
0.0340793
2.95186
0.0336038
2.92001
0.0331436
2.88876
0.032698
2.85808
0.0322666
2.82797
0.031849
2.79841
0.0314448
2.7694
0.0310534
2.74093
0.0306745
2.71298
0.0303077
2.68556
0.0299524
2.65864
0.0296083
2.63223
0.0292749
2.60631
0.0289519
2.58087
0.0286389
2.55591
0.0283354
2.53142
0.0280409
2.50738
0.0277553
2.48379
0.027478
2.46065
0.0272086
2.43793
0.0269468
2.41565
0.0266923
2.39377
0.0264446
2.37231
0.0262033
2.35124
0.0259682
2.33057
0.0257389
2.31027
0.0255149
2.29036
0.0252961
2.2708
0.025082
2.25161
0.0248723
2.23276
0.0246667
2.21426
0.0244648
2.19608
0.0242665
2.17824
0.0240712
2.1607
0.0238788
2.14347
0.023689
2.12655
0.0235014
2.10991
0.0233159
2.09355
0.023132
2.07747
0.0229496
2.06165
0.0227683
2.04609
0.022588
2.03078
0.0224083
2.0157
0.0222291
2.00086
0.0220501
1.98624
0.0218711
1.97184
0.0216918
1.95764
0.0215121
1.94364
0.0213316
1.92982
0.0211503
1.91619
0.020968
1.90274
0.0207844
1.88945
0.0205993
1.87631
0.0204127
1.86332
0.0202243
1.85048
0.0200339
1.83776
0.0198415
1.82518
0.0196469
1.8127
0.0194499
1.80034
0.0192504
1.78808
0.0190483
1.77592
0.0188434
1.76383
0.0186358
1.75183
0.0184252
1.7399
0.0182116
1.72804
0.0179949
1.71623
0.0177749
1.70447
0.0175518
1.69275
0.0173252
1.68107
0.0170953
1.66942
0.016862
1.65779
0.0166252
1.64617
0.0163849
1.63457
0.016141
1.62296
0.0158935
1.61136
0.0156424
1.59974
0.0153878
1.58811
0.0151295
1.57645
0.0148676
1.56477
0.0146021
1.55305
0.0143331
1.5413
0.0140605
1.5295
0.0137844
1.51764
0.0135048
1.50574
0.0132218
1.49377
0.0129354
1.48173
0.0126457
1.46963
0.0123527
1.45744
0.0120565
1.44518
0.0117572
1.43283
0.0114548
1.42039
0.0111494
1.40786
0.0108412
1.39523
0.0105302
1.3825
0.0102166
1.36965
0.0099004
1.3567
0.00958176
1.34363
0.00926081
1.33045
0.00893765
1.31714
0.00861241
1.30371
0.00828524
1.29015
0.00795629
1.27645
0.00762569
1.26262
0.0072936
1.24866
0.00696017
1.23455
0.00662557
1.2203
0.00628995
1.2059
0.00595349
1.19135
0.00561635
1.17665
0.00527873
1.1618
0.0049408
1.1468
0.00460275
1.13164
0.00426476
1.11631
0.00392701
1.10083
0.00358968
1.08519
0.00325299
1.06938
0.00291712
1.05341
0.0025823
1.03727
0.00224873
1.02096
0.0019166
1.00449
0.00158613
0.987853
0.00125753
0.971046
0.000931009
0.954071
0.000606774
0.936927
0.000285046
0.919615
-3.39686e-05
0.902134
-0.000350047
0.884486
-0.000662984
0.866671
-0.000972554
0.84869
-0.00127855
0.830543
-0.00158075
0.812232
-0.00187896
0.793758
-0.00217294
0.775122
-0.0024625
0.756326
-0.0027474
0.737372
-0.00302747
0.718262
-0.00330247
0.698997
-0.00357223
0.679581
-0.00383651
0.660015
-0.00409514
0.640303
-0.00434789
0.620446
-0.00459462
0.600449
-0.00483508
0.580314
-0.00506914
0.560045
-0.00529655
0.539644
-0.00551721
0.519116
-0.00573088
0.498465
-0.00593745
0.477693
-0.00613668
0.456806
-0.0063285
0.435808
-0.00651266
0.414703
-0.00668912
0.393495
-0.00685763
0.372189
-0.00701815
0.350789
-0.00717045
0.329301
-0.00731452
0.30773
-0.00745013
0.286081
-0.0075773
0.264358
-0.00769575
0.242568
-0.00780565
0.220715
-0.00790651
0.198805
-0.00799896
0.176843
-0.00808173
0.154836
-0.0081569
0.132788
-0.00822083
0.110709
-0.00827988
0.0885972
-0.00832325
0.0664719
-0.00836994
0.0443194
-0.00838784
0.022181
-0.00842976
-0.00838677
78.1118
-156.896
156.136
-156.563
233.977
-156.22
311.611
-155.788
389.034
-155.342
466.095
-154.611
542.712
-153.724
618.789
-152.639
694.198
-151.307
768.839
-149.775
842.611
-148.029
915.412
-146.071
987.094
-143.813
1057.48
-141.214
1126.38
-138.231
1193.59
-134.877
1258.96
-131.176
1322.31
-127.144
1383.49
-122.773
1442.31
-118.03
1498.56
-112.886
1552.04
-107.323
1602.54
-101.345
1649.86
-94.9722
1693.81
-88.2349
1734.23
-81.165
1770.98
-73.8023
1803.93
-66.1884
1832.97
-58.3734
1858.04
-50.4089
1879.09
-42.3522
1896.1
-34.262
1909.09
-26.2006
1918.09
-18.2313
1923.2
-10.4179
1924.52
-2.82071
1922.19
4.50419
1916.36
11.5076
1907.23
18.1471
1894.99
24.3882
1879.84
30.204
1862.03
35.5757
1841.77
40.4915
1819.29
44.9471
1794.83
48.9443
1768.61
52.4908
1740.84
55.5988
1711.74
58.2847
1681.51
60.568
1650.33
62.4707
1618.39
64.0164
1585.85
65.2298
1552.86
66.1361
1519.56
66.7609
1486.08
67.1289
1452.54
67.2648
1419.03
67.1919
1385.66
66.9327
1352.5
66.5085
1319.62
65.939
1287.09
65.2428
1254.96
64.4372
1223.28
63.5378
1192.09
62.559
1161.42
61.5141
1131.29
60.4147
1101.74
59.2715
1072.77
58.0941
1044.41
56.8909
1016.65
55.6693
989.504
54.4359
962.979
53.1964
937.072
51.9559
911.783
50.7185
887.108
49.4881
863.042
48.2677
839.578
47.06
816.711
45.8672
794.43
44.6912
772.727
43.5335
751.593
42.3954
731.018
41.2777
710.989
40.1814
691.498
39.107
672.532
38.0549
654.081
37.0255
636.132
36.0189
618.675
35.0352
601.698
34.0745
585.189
33.1366
569.138
32.2215
553.533
31.329
538.362
30.4588
523.615
29.6107
509.281
28.7844
495.349
27.9796
481.808
27.196
468.648
26.4332
455.86
25.6908
443.432
24.9685
431.354
24.2658
419.619
23.5824
408.215
22.9179
397.133
22.2718
386.365
21.6437
375.903
21.0332
365.736
20.4399
355.857
19.8634
346.257
19.3033
336.93
18.7592
327.866
18.2305
319.058
17.7171
310.5
17.2184
302.183
16.734
294.1
16.2636
286.246
15.8068
278.613
15.3633
271.195
14.9326
263.985
14.5143
256.978
14.1083
250.167
13.714
243.548
13.3311
237.114
12.9594
230.859
12.5986
224.78
12.2482
218.87
11.908
213.124
11.5776
207.539
11.2569
202.108
10.9455
196.829
10.6431
191.695
10.3495
186.704
10.0645
181.85
9.78763
177.13
9.5188
172.541
9.25775
168.077
9.00423
163.736
8.75803
159.514
8.51892
155.407
8.28668
151.413
8.06112
147.528
7.84203
143.748
7.62921
140.072
7.42249
136.495
7.22166
133.015
7.02657
129.63
6.83704
126.336
6.65289
123.13
6.47397
120.012
6.30013
116.977
6.1312
114.023
5.96705
111.149
5.80752
108.352
5.65249
105.63
5.50182
102.98
5.35538
100.401
5.21304
97.8904
5.07468
95.4467
4.94019
93.0678
4.80944
90.752
4.68234
88.4975
4.55877
86.3026
4.43862
84.1656
4.3218
82.0849
4.20822
80.0589
4.09776
78.0862
3.99035
76.1652
3.8859
74.2946
3.78432
72.4729
3.68552
70.6989
3.58943
68.9712
3.49596
67.2885
3.40505
65.6496
3.31661
64.0533
3.23058
62.4986
3.14689
60.9841
3.06547
59.5089
2.98625
58.0719
2.90918
56.672
2.83418
55.3083
2.76121
53.9798
2.69021
52.6855
2.62111
51.4245
2.55387
50.196
2.48844
48.999
2.42475
47.8328
2.36277
46.6965
2.30244
45.5893
2.24373
44.5104
2.18657
43.4591
2.13094
42.4347
2.07679
41.4365
2.02407
40.4637
1.97275
39.5158
1.92278
38.592
1.87414
37.6917
1.82678
36.8143
1.78067
35.9592
1.73577
35.1258
1.69206
34.3136
1.64949
33.5221
1.60804
32.7506
1.56768
31.9986
1.52837
31.2657
1.4901
30.5513
1.45282
29.8551
1.41651
29.1764
1.38115
28.5149
1.34671
27.8701
1.31317
27.2416
1.28049
26.6289
1.24867
26.0318
1.21767
25.4496
1.18747
24.8822
1.15805
24.329
1.1294
23.7898
1.10148
23.2642
1.07428
22.7518
1.04778
22.2522
1.02196
21.7653
0.99681
21.2905
0.972302
20.8277
0.948422
20.3765
0.925153
19.9367
0.90248
19.5078
0.880386
19.0898
0.858857
18.6822
0.837876
18.2848
0.817429
17.8973
0.797503
17.5196
0.778083
17.1512
0.759157
16.7921
0.74071
16.442
0.722731
16.1006
0.705206
15.7676
0.688125
15.443
0.671475
15.1265
0.655245
14.8178
0.639425
14.5168
0.624002
14.2233
0.608968
13.937
0.594311
13.6579
0.580022
13.3856
0.566091
13.12
0.552509
12.861
0.539267
12.6084
0.526356
12.362
0.513768
12.1217
0.501493
11.8872
0.489524
11.6585
0.477854
11.4354
0.466474
11.2177
0.455376
11.0053
0.444554
10.7981
0.434001
10.5959
0.423709
10.3986
0.413672
10.2061
0.403884
10.0182
0.394338
9.83477
0.385027
9.65578
0.375947
9.48107
0.36709
9.31052
0.358452
9.14403
0.350027
8.98149
0.34181
8.82279
0.333794
8.66783
0.325977
8.51651
0.318351
8.36873
0.310913
8.2244
0.303658
8.08343
0.296582
7.94573
0.289679
7.8112
0.282946
7.67977
0.276379
7.55135
0.269973
7.42586
0.263724
7.30323
0.25763
7.18337
0.251685
7.06621
0.245887
6.95168
0.240231
6.83972
0.234715
6.73024
0.229335
6.62319
0.224088
6.51849
0.218971
6.4161
0.213981
6.31594
0.209114
6.21796
0.204367
6.1221
0.199739
6.0283
0.195226
5.93651
0.190826
5.84668
0.186535
5.75875
0.182352
5.67267
0.178274
5.58841
0.174299
5.5059
0.170424
5.4251
0.166647
5.34598
0.162965
5.26848
0.159378
5.19257
0.155881
5.1182
0.152475
5.04534
0.149155
4.97395
0.145922
4.90398
0.142772
4.83542
0.139703
4.76821
0.136715
4.70233
0.133805
4.63775
0.130972
4.57442
0.128213
4.51234
0.125528
4.45145
0.122914
4.39174
0.12037
4.33318
0.117895
4.27574
0.115486
4.21939
0.113144
4.16411
0.110865
4.10988
0.108649
4.05667
0.106494
4.00446
0.104399
3.95322
0.102363
3.90294
0.100384
3.8536
0.0984612
3.80517
0.096593
3.75764
0.0947783
3.71099
0.0930158
3.6652
0.0913045
3.62024
0.0896431
3.57612
0.0880304
3.5328
0.0864652
3.49027
0.0849466
3.44852
0.0834733
3.40754
0.0820442
3.3673
0.0806583
3.3278
0.0793145
3.28901
0.0780118
3.25094
0.0767491
3.21355
0.0755253
3.17685
0.0743395
3.14082
0.0731906
3.10545
0.0720777
3.07072
0.0709998
3.03662
0.0699559
3.00315
0.068945
2.9703
0.0679663
2.93804
0.0670186
2.90638
0.0661012
2.8753
0.0652131
2.84479
0.0643534
2.81485
0.0635212
2.78545
0.0627156
2.7566
0.0619357
2.72829
0.0611807
2.7005
0.0604496
2.67322
0.0597417
2.64646
0.059056
2.62019
0.0583918
2.59441
0.0577483
2.56911
0.0571245
2.54428
0.0565198
2.51992
0.0559332
2.49602
0.0553641
2.47256
0.0548116
2.44954
0.054275
2.42694
0.0537535
2.40477
0.0532464
2.38302
0.0527529
2.36167
0.0522724
2.34071
0.051804
2.32015
0.0513472
2.29996
0.0509011
2.28015
0.0504651
2.2607
0.0500387
2.2416
0.0496209
2.22285
0.0492114
2.20444
0.0488093
2.18636
0.0484141
2.16861
0.0480252
2.15116
0.047642
2.13402
0.0472638
2.11718
0.0468901
2.10062
0.0465204
2.08435
0.046154
2.06835
0.0457905
2.05261
0.0454294
2.03712
0.0450701
2.02189
0.0447121
2.00689
0.044355
1.99212
0.0439982
1.97757
0.0436414
1.96323
0.043284
1.9491
0.0429257
1.93517
0.042566
1.92142
0.0422046
1.90785
0.041841
1.89446
0.0414749
1.88123
0.0411059
1.86816
0.0407337
1.85523
0.040358
1.84244
0.0399784
1.82979
0.0395946
1.81726
0.0392063
1.80484
0.0388133
1.79254
0.0384154
1.78033
0.0380122
1.76822
0.0376035
1.75619
0.0371892
1.74424
0.036769
1.73237
0.0363427
1.72055
0.0359102
1.70879
0.0354713
1.69709
0.0350259
1.68542
0.0345738
1.67379
0.0341149
1.66219
0.0336491
1.65061
0.0331764
1.63904
0.0326966
1.62748
0.0322097
1.61593
0.0317157
1.60437
0.0312144
1.5928
0.030706
1.58122
0.0301903
1.56961
0.0296674
1.55798
0.0291374
1.54631
0.0286002
1.5346
0.0280559
1.52285
0.0275045
1.51105
0.0269462
1.49919
0.0263811
1.48727
0.0258091
1.47529
0.0252305
1.46323
0.0246453
1.4511
0.0240537
1.43889
0.0234559
1.42659
0.022852
1.4142
0.0222421
1.40172
0.0216265
1.38914
0.0210054
1.37646
0.0203789
1.36367
0.0197473
1.35077
0.0191109
1.33776
0.0184697
1.32463
0.0178242
1.31137
0.0171746
1.298
0.016521
1.28449
0.0158639
1.27085
0.0152036
1.25708
0.0145402
1.24317
0.0138741
1.22912
0.0132057
1.21493
0.0125352
1.20059
0.0118631
1.18611
0.0111896
1.17147
0.0105151
1.15668
0.00983999
1.14174
0.00916463
1.12664
0.00848938
1.11138
0.00781462
1.09597
0.0071407
1.08039
0.00646804
1.06465
0.00579704
1.04874
0.00512812
1.03267
0.00446168
1.01644
0.00379812
1.00004
0.00313787
0.983471
0.00248134
0.966736
0.00182896
0.949833
0.00118115
0.932763
0.00053833
0.915525
-9.90707e-05
0.898121
-0.000730611
0.880549
-0.00135588
0.862811
-0.00197443
0.844908
-0.00258585
0.82684
-0.00318968
0.808608
-0.00378554
0.790215
-0.00437296
0.77166
-0.00495155
0.752947
-0.00552085
0.734076
-0.00608049
0.715049
-0.00663002
0.695869
-0.00716906
0.676538
-0.00769717
0.657059
-0.008214
0.637434
-0.00871909
0.617665
-0.00921214
0.597756
-0.00969268
0.57771
-0.0101604
0.557531
-0.0106149
0.537221
-0.0110559
0.516784
-0.0114829
0.496224
-0.0118958
0.475546
-0.0122939
0.454752
-0.0126773
0.433847
-0.0130454
0.412836
-0.0133981
0.391723
-0.0137349
0.370512
-0.0140558
0.349209
-0.0143602
0.327817
-0.0146482
0.306343
-0.0149193
0.284791
-0.0151736
0.263166
-0.0154104
0.241473
-0.0156301
0.219718
-0.0158319
0.197907
-0.0160167
0.176045
-0.0161826
0.154137
-0.0163326
0.13219
-0.0164617
0.11021
-0.0165787
0.0882032
-0.01667
0.0661808
-0.0167601
0.0441529
-0.0168125
0.0221505
-0.0168928
-0.0168894
77.9524
-234.943
155.758
-234.463
233.322
-233.88
310.699
-233.263
387.944
-232.687
464.844
-231.615
541.308
-230.294
617.253
-228.692
692.527
-226.694
767.035
-224.4
840.702
-221.817
913.452
-218.945
985.135
-215.626
1055.56
-211.768
1124.49
-207.303
1191.74
-202.267
1257.13
-196.715
1320.53
-190.69
1381.79
-184.175
1440.72
-177.107
1497.11
-169.425
1550.73
-161.095
1601.37
-152.128
1648.82
-142.557
1692.88
-132.433
1733.39
-121.805
1770.2
-110.734
1803.18
-99.2797
1832.23
-87.5193
1857.26
-75.531
1878.23
-63.4013
1895.12
-51.2185
1907.94
-39.0777
1916.74
-27.0755
1921.61
-15.3102
1922.65
-3.87434
1920
7.14626
1913.84
17.6769
1904.35
27.6537
1891.74
37.0246
1876.23
45.7496
1858.05
53.8008
1837.44
61.1614
1814.62
67.8256
1789.83
73.7972
1763.29
79.0886
1735.24
83.7194
1705.88
87.7149
1675.42
91.1053
1644.04
93.9244
1611.92
96.2083
1579.23
97.9946
1546.11
99.3218
1512.72
100.228
1479.16
100.752
1445.56
100.929
1412.02
100.795
1378.63
100.384
1345.46
99.7276
1312.6
98.8555
1280.1
97.7954
1248.01
96.5729
1216.38
95.2114
1185.24
93.7326
1154.64
92.1558
1124.59
90.4987
1095.12
88.777
1066.24
87.005
1037.96
85.1951
1010.29
83.3583
983.249
81.5046
956.825
79.6424
931.022
77.779
905.839
75.9209
881.271
74.0736
857.314
72.2417
833.961
70.4292
811.204
68.6394
789.034
66.8751
767.444
65.1384
746.421
63.4314
725.957
61.7554
706.04
60.1116
686.66
58.5009
667.804
56.9239
649.462
55.381
631.622
53.8727
614.272
52.3988
597.401
50.9595
580.997
49.5547
565.049
48.1842
549.546
46.8476
534.475
45.5446
519.827
44.2749
505.589
43.038
491.752
41.8334
478.305
40.6606
465.236
39.519
452.537
38.4082
440.196
37.3274
428.205
36.2762
416.552
35.2538
405.23
34.2597
394.228
33.2933
383.539
32.3539
373.152
31.4409
363.059
30.5537
353.252
29.6916
343.723
28.8541
334.464
28.0404
325.467
27.25
316.724
26.4823
308.229
25.7367
299.974
25.0126
291.951
24.3094
284.155
23.6265
276.579
22.9634
269.216
22.3196
262.06
21.6944
255.105
21.0874
248.345
20.498
241.775
19.9258
235.389
19.3702
229.181
18.8308
223.147
18.307
217.281
17.7985
211.579
17.3048
206.035
16.8255
200.645
16.36
195.405
15.9081
190.309
15.4693
185.355
15.0432
180.537
14.6294
175.853
14.2277
171.297
13.8375
166.867
13.4586
162.558
13.0906
158.367
12.7333
154.291
12.3862
150.327
12.049
146.47
11.7216
142.719
11.4035
139.069
11.0945
135.519
10.7944
132.065
10.5028
128.704
10.2195
125.435
9.94433
122.253
9.67692
119.157
9.41709
116.145
9.16461
113.213
8.91927
110.36
8.68084
107.583
8.44913
104.881
8.22394
102.251
8.00506
99.6904
7.79232
97.1984
7.58553
94.7725
7.38451
92.4111
7.18909
90.1122
6.99912
87.8741
6.81442
85.6952
6.63484
83.5737
6.46024
81.5082
6.29047
79.4969
6.12538
77.5386
5.96484
75.6316
5.80872
73.7745
5.65688
71.9661
5.50921
70.2049
5.36558
68.4897
5.22588
66.8191
5.08999
65.1921
4.9578
63.6074
4.82921
62.0638
4.70412
60.5603
4.58241
59.0957
4.46401
57.6691
4.3488
56.2793
4.23671
54.9254
4.12764
53.6064
4.02151
52.3214
3.91823
51.0695
3.81772
49.8498
3.71991
48.6614
3.62471
47.5036
3.53207
46.3754
3.44189
45.2761
3.35413
44.2049
3.2687
43.1612
3.18554
42.1441
3.10459
41.153
3.02579
40.1872
2.94907
39.246
2.87439
38.3287
2.80168
37.4349
2.73089
36.5637
2.66196
35.7147
2.59485
34.8873
2.52951
34.0809
2.46588
33.2949
2.40392
32.5289
2.34359
31.7823
2.28483
31.0546
2.22762
30.3453
2.17189
29.6539
2.11762
28.9801
2.06476
28.3233
2.01328
27.683
1.96314
27.059
1.9143
26.4507
1.86673
25.8577
1.82039
25.2797
1.77525
24.7162
1.73128
24.167
1.68844
23.6316
1.64671
23.1096
1.60605
22.6008
1.56644
22.1048
1.52785
21.6213
1.49025
21.1499
1.45362
20.6903
1.41792
20.2423
1.38314
19.8056
1.34925
19.3798
1.31622
18.9646
1.28404
18.5599
1.25267
18.1653
1.22211
17.7805
1.19232
17.4054
1.16329
17.0397
1.135
16.6831
1.10743
16.3354
1.08055
15.9964
1.05435
15.6658
1.02882
15.3435
1.00393
15.0291
0.97967
14.7226
0.95602
14.4237
0.932966
14.1322
0.910491
13.848
0.888581
13.5708
0.867221
13.3004
0.846396
13.0367
0.826092
12.7795
0.806297
12.5287
0.786996
12.284
0.768177
12.0453
0.749828
11.8125
0.731936
11.5853
0.714489
11.3638
0.697476
11.1476
0.680886
10.9367
0.664708
10.7309
0.648931
10.5301
0.633545
10.3342
0.61854
10.143
0.603906
9.95638
0.589634
9.77427
0.575715
9.59652
0.562139
9.42301
0.548898
9.25365
0.535984
9.08831
0.523388
8.92689
0.511102
8.76928
0.499118
8.61539
0.48743
8.46512
0.476029
8.31836
0.464908
8.17502
0.454061
8.03502
0.44348
7.89826
0.433159
7.76466
0.423092
7.63413
0.413273
7.50659
0.403694
7.38196
0.394352
7.26017
0.385239
7.14113
0.37635
7.02477
0.36768
6.91103
0.359224
6.79982
0.350976
6.69109
0.342931
6.58477
0.335085
6.48079
0.327433
6.37909
0.31997
6.27961
0.312693
6.18229
0.305595
6.08708
0.298675
5.99391
0.291926
5.90275
0.285346
5.81352
0.27893
5.72618
0.272674
5.64069
0.266576
5.55699
0.260631
5.47503
0.254836
5.39478
0.249188
5.31618
0.243683
5.23921
0.238317
5.1638
0.233089
5.08993
0.227994
5.01755
0.223031
4.94663
0.218195
4.87713
0.213484
4.80902
0.208896
4.74226
0.204427
4.67682
0.200076
4.61266
0.195838
4.54975
0.191713
4.48807
0.187697
4.42759
0.183789
4.36827
0.179985
4.31009
0.176284
4.25302
0.172682
4.19704
0.169179
4.14212
0.165772
4.08825
0.162459
4.03538
0.159237
3.98351
0.156105
3.9326
0.15306
3.88265
0.150101
3.83363
0.147227
3.78551
0.144434
3.73828
0.141721
3.69193
0.139086
3.64643
0.136528
3.60176
0.134044
3.55792
0.131633
3.51487
0.129294
3.47262
0.127024
3.43113
0.124822
3.3904
0.122686
3.35042
0.120615
3.31116
0.118607
3.27262
0.11666
3.23478
0.114773
3.19763
0.112945
3.16116
0.111173
3.12535
0.109457
3.09019
0.107794
3.05568
0.106184
3.0218
0.104625
2.98853
0.103115
2.95588
0.101653
2.92382
0.100238
2.89235
0.098868
2.86146
0.097542
2.83113
0.0962584
2.80137
0.0950159
2.77215
0.0938133
2.74347
0.0926491
2.71533
0.0915221
2.6877
0.090431
2.66059
0.0893745
2.63398
0.0883514
2.60786
0.0873603
2.58224
0.0864001
2.55709
0.0854695
2.5324
0.0845673
2.50818
0.0836923
2.48441
0.0828434
2.46109
0.0820194
2.4382
0.081219
2.41573
0.0804413
2.39369
0.0796851
2.37206
0.0789492
2.35082
0.0782326
2.32999
0.0775342
2.30953
0.0768529
2.28946
0.0761878
2.26975
0.0755377
2.25041
0.0749017
2.23142
0.0742788
2.21277
0.073668
2.19446
0.0730684
2.17648
0.072479
2.15881
0.0718989
2.14146
0.0713272
2.12441
0.070763
2.10765
0.0702055
2.09118
0.0696538
2.07499
0.0691071
2.05907
0.0685646
2.04341
0.0680254
2.028
0.067489
2.01284
0.0669544
1.99792
0.0664209
1.98322
0.065888
1.96874
0.0653548
1.95447
0.0648208
1.94041
0.0642852
1.92654
0.0637475
1.91286
0.063207
1.89936
0.0626632
1.88602
0.0621156
1.87286
0.0615635
1.85984
0.0610065
1.84697
0.060444
1.83424
0.0598757
1.82164
0.059301
1.80917
0.0587195
1.79681
0.0581308
1.78455
0.0575345
1.7724
0.0569303
1.76034
0.0563178
1.74836
0.0556967
1.73646
0.0550667
1.72464
0.0544276
1.71287
0.0537789
1.70116
0.0531206
1.6895
0.0524524
1.67788
0.0517741
1.6663
0.0510855
1.65474
0.0503866
1.64321
0.0496771
1.63169
0.0489569
1.62018
0.048226
1.60867
0.0474842
1.59716
0.0467316
1.58563
0.0459682
1.57409
0.0451938
1.56253
0.0444085
1.55094
0.0436124
1.53932
0.0428055
1.52766
0.0419879
1.51595
0.0411596
1.50419
0.0403208
1.49238
0.0394717
1.48051
0.0386123
1.46857
0.0377429
1.45656
0.0368635
1.44448
0.0359746
1.43231
0.0350761
1.42006
0.0341685
1.40772
0.0332519
1.39529
0.0323266
1.38276
0.031393
1.37013
0.0304513
1.35739
0.0295019
1.34454
0.0285451
1.33158
0.0275814
1.3185
0.0266109
1.3053
0.0256342
1.29198
0.0246517
1.27852
0.0236638
1.26494
0.0226709
1.25123
0.0216735
1.23738
0.0206721
1.22338
0.019667
1.20925
0.0186589
1.19497
0.0176483
1.18055
0.0166356
1.16597
0.0156213
1.15124
0.0146061
1.13636
0.0135905
1.12133
0.0125751
1.10614
0.0115603
1.09079
0.0105469
1.07527
0.00953529
1.0596
0.00852621
1.04377
0.00752021
1.02777
0.00651794
1.0116
0.00551999
0.995273
0.004527
0.978779
0.00353959
0.962118
0.00255841
0.94529
0.00158407
0.928297
0.000617251
0.911136
-0.000341438
0.89381
-0.00129132
0.876318
-0.00223179
0.85866
-0.00316215
0.840839
-0.0040818
0.822853
-0.00499005
0.804706
-0.00588631
0.786397
-0.00676989
0.767928
-0.00764019
0.749301
-0.00849653
0.730518
-0.00933835
0.711581
-0.010165
0.692491
-0.0109758
0.673251
-0.0117702
0.653863
-0.0125476
0.634331
-0.0133074
0.614656
-0.0140491
0.594842
-0.014772
0.574891
-0.0154756
0.554808
-0.0161593
0.534595
-0.0168227
0.514257
-0.017465
0.493796
-0.0180861
0.473217
-0.0186851
0.452524
-0.0192618
0.43172
-0.0198155
0.410811
-0.0203461
0.3898
-0.0208528
0.368692
-0.0213354
0.347493
-0.0217934
0.326206
-0.0222267
0.304836
-0.0226345
0.283389
-0.0230169
0.26187
-0.0233731
0.240283
-0.0237036
0.218635
-0.0240071
0.19693
-0.0242847
0.175175
-0.0245343
0.153373
-0.0247589
0.131532
-0.0249533
0.109655
-0.0251257
0.0877501
-0.0252634
0.0658205
-0.0253876
0.0438856
-0.0254664
0.0220103
-0.0255539
-0.0255772
77.9159
-313.072
155.563
-312.322
232.828
-311.355
309.945
-310.589
387.091
-310.042
463.941
-308.673
540.359
-306.917
616.278
-304.814
691.509
-302.125
765.967
-299.055
839.634
-295.676
912.484
-291.984
984.362
-287.69
1055.03
-282.616
1124.2
-276.657
1191.66
-269.897
1257.25
-262.471
1320.86
-254.467
1382.39
-245.856
1441.64
-236.515
1498.39
-226.327
1552.38
-215.231
1603.37
-203.252
1651.13
-190.449
1695.46
-176.9
1736.21
-162.672
1773.2
-147.844
1806.32
-132.496
1835.43
-116.73
1860.47
-100.654
1881.38
-84.3835
1898.13
-68.0363
1910.74
-51.7414
1919.26
-35.6317
1923.77
-19.8433
1924.39
-4.50438
1921.27
10.2675
1914.59
24.3707
1904.54
37.719
1891.36
50.2434
1875.26
61.8906
1856.48
72.6241
1835.28
82.4229
1811.88
91.2809
1786.54
99.205
1759.49
106.214
1730.95
112.335
1701.13
117.604
1670.25
122.064
1638.49
125.76
1606.03
128.742
1573.04
131.062
1539.66
132.771
1506.04
133.922
1472.3
134.566
1438.54
134.751
1404.87
134.525
1371.38
133.934
1338.15
133.019
1305.24
131.82
1272.71
130.374
1240.62
128.715
1209
126.874
1177.89
124.879
1147.33
122.757
1117.33
120.529
1087.93
118.218
1059.12
115.842
1030.92
113.417
1003.35
110.958
976.402
108.477
950.079
105.987
924.383
103.496
899.309
101.014
874.855
98.546
851.013
96.1
827.778
93.6805
805.141
91.292
783.092
88.938
761.623
86.6216
740.723
84.3452
720.382
82.1106
700.587
79.9194
681.329
77.7727
662.595
75.6714
644.373
73.6159
626.653
71.6067
609.422
69.6439
592.668
67.7274
576.38
65.8571
560.546
64.0326
545.155
62.2537
530.195
60.5198
515.656
58.8303
501.525
57.1847
487.793
55.5822
474.448
54.0223
461.481
52.5041
448.88
51.0268
436.636
49.5898
424.739
48.1921
413.179
46.8329
401.947
45.5115
391.033
44.2269
380.429
42.9783
370.126
41.7649
360.115
40.5858
350.388
39.4402
340.937
38.3272
331.754
37.246
322.83
36.1958
314.159
35.1758
305.734
34.1852
297.547
33.2232
289.59
32.289
281.859
31.3818
274.345
30.501
267.043
29.6457
259.946
28.8152
253.049
28.0089
246.346
27.2261
239.83
26.466
233.497
25.728
227.34
25.0116
221.356
24.3159
215.539
23.6406
209.884
22.9848
204.386
22.3481
199.041
21.73
193.844
21.1297
188.791
20.5469
183.877
19.981
179.1
19.4315
174.454
18.8979
169.936
18.3797
165.542
17.8765
161.269
17.3877
157.112
16.9131
153.07
16.4521
149.138
16.0044
145.313
15.5695
141.593
15.1471
137.973
14.7367
134.452
14.3381
131.026
13.9508
127.693
13.5746
124.45
13.2091
121.294
12.8539
118.224
12.5088
115.236
12.1735
112.328
11.8477
109.498
11.531
106.744
11.2233
104.064
10.9242
101.455
10.6335
98.9152
10.3509
96.4433
10.0762
94.0371
9.80925
91.6947
9.5497
89.4144
9.29738
87.1944
9.05206
85.033
8.81355
82.9286
8.58164
80.8797
8.35615
78.8846
8.13687
76.9419
7.92364
75.0502
7.71627
73.2081
7.5146
71.4141
7.31845
69.667
7.12768
67.9655
6.94212
66.3083
6.76162
64.6942
6.58605
63.1221
6.41524
61.5909
6.24908
60.0993
6.08742
58.6464
5.93015
57.231
5.77712
55.8523
5.62823
54.5091