/*--------------------------------*- C++ -*----------------------------------*\
| =========                 |                                                 |
| \\      /  F ield         | OpenFOAM: The Open Source CFD Toolbox           |
|  \\    /   O peration     | Version:  v2012                                 |
|   \\  /    A nd           | Website:  www.openfoam.com                      |
|    \\/     M anipulation  |                                                 |
\*---------------------------------------------------------------------------*/
FoamFile
{
    version     2.0;
    format      ascii;
    class       volScalarField;
    location    "200";
    object      T;
}
// * * * * * * * * * * * * * * * * * * * * * * * * * * * * * * * * * * * * * //

dimensions      [0 0 0 1 0 0 0];


internalField   nonuniform List<scalar> 
65536
(
300.194
300.193
300.191
300.189
300.186
300.183
300.178
300.173
300.168
300.161
300.154
300.147
300.139
300.13
300.121
300.112
300.102
300.092
300.082
300.071
300.06
300.05
300.039
300.028
300.018
300.008
299.998
299.989
299.98
299.972
299.964
299.956
299.949
299.942
299.936
299.931
299.926
299.921
299.916
299.912
299.907
299.903
299.899
299.895
299.891
299.887
299.883
299.878
299.874
299.869
299.864
299.859
299.854
299.849
299.844
299.838
299.833
299.828
299.823
299.817
299.812
299.808
299.803
299.798
299.794
299.79
299.786
299.782
299.779
299.775
299.773
299.77
299.767
299.765
299.763
299.761
299.76
299.758
299.757
299.756
299.755
299.754
299.754
299.753
299.753
299.753
299.752
299.752
299.752
299.752
299.752
299.753
299.753
299.753
299.753
299.754
299.754
299.754
299.755
299.755
299.756
299.756
299.757
299.757
299.757
299.758
299.758
299.759
299.759
299.76
299.76
299.761
299.761
299.761
299.762
299.762
299.763
299.763
299.763
299.764
299.764
299.765
299.765
299.765
299.766
299.766
299.766
299.767
299.767
299.767
299.768
299.768
299.768
299.769
299.769
299.769
299.77
299.77
299.77
299.77
299.771
299.771
299.771
299.772
299.772
299.772
299.772
299.773
299.773
299.773
299.773
299.774
299.774
299.774
299.774
299.775
299.775
299.775
299.775
299.776
299.776
299.776
299.776
299.777
299.777
299.777
299.777
299.777
299.778
299.778
299.778
299.778
299.779
299.779
299.779
299.779
299.779
299.78
299.78
299.78
299.78
299.78
299.781
299.781
299.781
299.781
299.782
299.782
299.782
299.782
299.782
299.783
299.783
299.783
299.783
299.783
299.783
299.784
299.784
299.784
299.784
299.784
299.785
299.785
299.785
299.785
299.785
299.785
299.785
299.786
299.786
299.786
299.786
299.786
299.786
299.787
299.787
299.787
299.787
299.787
299.787
299.787
299.787
299.788
299.788
299.788
299.788
299.788
299.788
299.788
299.788
299.788
299.789
299.789
299.789
299.789
299.789
299.789
299.789
299.789
299.789
299.789
299.789
299.79
299.79
299.79
299.79
299.79
299.79
299.79
299.79
299.79
299.79
299.79
299.79
299.791
299.791
299.791
299.791
299.791
299.791
299.791
299.791
299.791
299.791
299.791
299.791
299.791
299.791
299.792
299.792
299.792
299.792
299.792
299.792
299.792
299.792
299.792
299.792
299.792
299.792
299.792
299.792
299.793
299.793
299.793
299.793
299.793
299.793
299.793
299.793
299.793
299.793
299.793
299.793
299.793
299.793
299.794
299.794
299.794
299.794
299.794
299.794
299.794
299.794
299.794
299.794
299.794
299.794
299.794
299.795
299.795
299.795
299.795
299.795
299.795
299.795
299.795
299.795
299.795
299.795
299.795
299.795
299.795
299.796
299.796
299.796
299.796
299.796
299.796
299.796
299.796
299.796
299.796
299.796
299.796
299.796
299.796
299.796
299.797
299.797
299.797
299.797
299.797
299.797
299.797
299.797
299.797
299.797
299.797
299.797
299.797
299.797
299.797
299.797
299.797
299.797
299.797
299.797
299.798
299.798
299.798
299.798
299.798
299.798
299.798
299.798
299.798
299.798
299.798
299.798
299.798
299.798
299.798
299.798
299.798
299.798
299.798
299.798
299.798
299.798
299.798
299.798
299.798
299.798
299.798
299.798
299.798
299.798
299.798
299.798
299.798
299.798
299.798
299.798
299.798
299.798
299.798
299.798
299.798
299.799
299.799
299.799
299.799
299.799
299.799
299.799
299.799
299.799
299.799
299.799
299.799
299.799
299.799
299.799
299.799
299.799
299.799
299.799
299.799
299.799
299.799
299.799
299.799
299.799
299.799
299.799
299.799
299.799
299.799
299.799
299.799
299.799
299.799
299.799
299.799
299.799
299.799
299.799
299.799
299.799
299.799
299.799
299.799
299.799
299.799
299.799
299.799
299.799
299.799
299.799
299.799
299.799
299.799
299.799
299.799
299.799
299.799
299.799
299.799
299.799
299.799
299.799
299.799
299.799
299.799
299.799
299.799
299.799
299.799
299.799
299.799
299.799
299.799
299.799
299.799
299.799
299.799
299.799
299.799
299.799
299.799
299.799
299.799
299.799
299.799
299.799
299.799
299.799
299.799
299.799
299.799
299.799
299.799
299.799
299.799
299.799
299.799
299.799
299.799
299.799
299.799
299.799
299.799
299.799
299.799
299.799
299.799
299.799
299.799
299.799
299.799
299.705
299.704
299.703
299.7
299.698
299.694
299.69
299.685
299.679
299.673
299.666
299.658
299.65
299.641
299.632
299.623
299.613
299.603
299.592
299.582
299.571
299.56
299.55
299.539
299.529
299.519
299.509
299.5
299.491
299.482
299.474
299.467
299.46
299.453
299.447
299.441
299.436
299.431
299.427
299.422
299.418
299.414
299.41
299.406
299.402
299.397
299.393
299.389
299.384
299.38
299.375
299.37
299.365
299.359
299.354
299.349
299.344
299.338
299.333
299.328
299.323
299.318
299.313
299.309
299.304
299.3
299.296
299.293
299.289
299.286
299.283
299.28
299.278
299.275
299.273
299.272
299.27
299.269
299.267
299.266
299.265
299.265
299.264
299.263
299.263
299.263
299.263
299.262
299.262
299.262
299.263
299.263
299.263
299.263
299.263
299.264
299.264
299.264
299.265
299.265
299.266
299.266
299.266
299.267
299.267
299.268
299.268
299.268
299.269
299.269
299.27
299.27
299.271
299.271
299.271
299.272
299.272
299.273
299.273
299.273
299.274
299.274
299.274
299.275
299.275
299.275
299.276
299.276
299.276
299.277
299.277
299.277
299.278
299.278
299.278
299.279
299.279
299.279
299.279
299.28
299.28
299.28
299.28
299.281
299.281
299.281
299.282
299.282
299.282
299.282
299.283
299.283
299.283
299.283
299.284
299.284
299.284
299.284
299.284
299.285
299.285
299.285
299.285
299.286
299.286
299.286
299.286
299.287
299.287
299.287
299.287
299.287
299.288
299.288
299.288
299.288
299.289
299.289
299.289
299.289
299.289
299.29
299.29
299.29
299.29
299.29
299.291
299.291
299.291
299.291
299.291
299.292
299.292
299.292
299.292
299.292
299.293
299.293
299.293
299.293
299.293
299.293
299.294
299.294
299.294
299.294
299.294
299.294
299.295
299.295
299.295
299.295
299.295
299.295
299.295
299.296
299.296
299.296
299.296
299.296
299.296
299.296
299.296
299.297
299.297
299.297
299.297
299.297
299.297
299.297
299.297
299.297
299.298
299.298
299.298
299.298
299.298
299.298
299.298
299.298
299.298
299.298
299.298
299.299
299.299
299.299
299.299
299.299
299.299
299.299
299.299
299.299
299.299
299.299
299.299
299.3
299.3
299.3
299.3
299.3
299.3
299.3
299.3
299.3
299.3
299.3
299.3
299.3
299.3
299.301
299.301
299.301
299.301
299.301
299.301
299.301
299.301
299.301
299.301
299.301
299.301
299.301
299.301
299.302
299.302
299.302
299.302
299.302
299.302
299.302
299.302
299.302
299.302
299.302
299.302
299.302
299.302
299.303
299.303
299.303
299.303
299.303
299.303
299.303
299.303
299.303
299.303
299.303
299.303
299.303
299.304
299.304
299.304
299.304
299.304
299.304
299.304
299.304
299.304
299.304
299.304
299.304
299.304
299.304
299.305
299.305
299.305
299.305
299.305
299.305
299.305
299.305
299.305
299.305
299.305
299.305
299.305
299.305
299.305
299.306
299.306
299.306
299.306
299.306
299.306
299.306
299.306
299.306
299.306
299.306
299.306
299.306
299.306
299.306
299.306
299.306
299.306
299.306
299.306
299.307
299.307
299.307
299.307
299.307
299.307
299.307
299.307
299.307
299.307
299.307
299.307
299.307
299.307
299.307
299.307
299.307
299.307
299.307
299.307
299.307
299.307
299.307
299.307
299.307
299.307
299.307
299.307
299.307
299.307
299.307
299.307
299.307
299.307
299.307
299.307
299.307
299.307
299.307
299.307
299.307
299.308
299.308
299.308
299.308
299.308
299.308
299.308
299.308
299.308
299.308
299.308
299.308
299.308
299.308
299.308
299.308
299.308
299.308
299.308
299.308
299.308
299.308
299.308
299.308
299.308
299.308
299.308
299.308
299.308
299.308
299.308
299.308
299.308
299.308
299.308
299.308
299.308
299.308
299.308
299.308
299.308
299.308
299.308
299.308
299.308
299.308
299.308
299.308
299.308
299.308
299.308
299.308
299.308
299.308
299.308
299.308
299.308
299.308
299.308
299.308
299.308
299.308
299.308
299.308
299.308
299.308
299.308
299.308
299.308
299.308
299.308
299.308
299.308
299.308
299.308
299.308
299.308
299.308
299.308
299.308
299.308
299.308
299.308
299.308
299.308
299.308
299.308
299.308
299.308
299.308
299.308
299.308
299.308
299.308
299.308
299.308
299.308
299.308
299.308
299.308
299.308
299.308
299.308
299.308
299.308
299.308
299.308
299.308
299.308
299.308
299.308
299.308
299.222
299.221
299.22
299.217
299.214
299.211
299.206
299.201
299.195
299.189
299.182
299.174
299.166
299.157
299.147
299.138
299.127
299.117
299.106
299.095
299.084
299.073
299.062
299.051
299.041
299.031
299.021
299.011
299.002
298.993
298.985
298.977
298.97
298.964
298.957
298.952
298.946
298.941
298.937
298.932
298.928
298.924
298.919
298.915
298.911
298.907
298.903
298.898
298.893
298.889
298.884
298.879
298.874
298.869
298.863
298.858
298.853
298.848
298.842
298.837
298.832
298.827
298.823
298.818
298.814
298.81
298.806
298.802
298.799
298.795
298.793
298.79
298.787
298.785
298.783
298.781
298.78
298.778
298.777
298.776
298.775
298.774
298.774
298.773
298.773
298.772
298.772
298.772
298.772
298.772
298.772
298.772
298.773
298.773
298.773
298.773
298.774
298.774
298.775
298.775
298.775
298.776
298.776
298.777
298.777
298.777
298.778
298.778
298.779
298.779
298.78
298.78
298.78
298.781
298.781
298.782
298.782
298.782
298.783
298.783
298.784
298.784
298.784
298.785
298.785
298.785
298.786
298.786
298.786
298.787
298.787
298.787
298.788
298.788
298.788
298.788
298.789
298.789
298.789
298.79
298.79
298.79
298.79
298.791
298.791
298.791
298.791
298.792
298.792
298.792
298.792
298.793
298.793
298.793
298.793
298.794
298.794
298.794
298.794
298.795
298.795
298.795
298.795
298.796
298.796
298.796
298.796
298.797
298.797
298.797
298.797
298.797
298.798
298.798
298.798
298.798
298.798
298.799
298.799
298.799
298.799
298.8
298.8
298.8
298.8
298.8
298.801
298.801
298.801
298.801
298.801
298.802
298.802
298.802
298.802
298.802
298.802
298.803
298.803
298.803
298.803
298.803
298.804
298.804
298.804
298.804
298.804
298.804
298.805
298.805
298.805
298.805
298.805
298.805
298.805
298.806
298.806
298.806
298.806
298.806
298.806
298.806
298.806
298.807
298.807
298.807
298.807
298.807
298.807
298.807
298.807
298.807
298.808
298.808
298.808
298.808
298.808
298.808
298.808
298.808
298.808
298.808
298.808
298.809
298.809
298.809
298.809
298.809
298.809
298.809
298.809
298.809
298.809
298.809
298.809
298.81
298.81
298.81
298.81
298.81
298.81
298.81
298.81
298.81
298.81
298.81
298.81
298.81
298.81
298.811
298.811
298.811
298.811
298.811
298.811
298.811
298.811
298.811
298.811
298.811
298.811
298.811
298.811
298.812
298.812
298.812
298.812
298.812
298.812
298.812
298.812
298.812
298.812
298.812
298.812
298.812
298.812
298.813
298.813
298.813
298.813
298.813
298.813
298.813
298.813
298.813
298.813
298.813
298.813
298.813
298.814
298.814
298.814
298.814
298.814
298.814
298.814
298.814
298.814
298.814
298.814
298.814
298.814
298.814
298.815
298.815
298.815
298.815
298.815
298.815
298.815
298.815
298.815
298.815
298.815
298.815
298.815
298.815
298.815
298.816
298.816
298.816
298.816
298.816
298.816
298.816
298.816
298.816
298.816
298.816
298.816
298.816
298.816
298.816
298.816
298.816
298.816
298.816
298.816
298.817
298.817
298.817
298.817
298.817
298.817
298.817
298.817
298.817
298.817
298.817
298.817
298.817
298.817
298.817
298.817
298.817
298.817
298.817
298.817
298.817
298.817
298.817
298.817
298.817
298.817
298.817
298.817
298.817
298.817
298.817
298.817
298.817
298.817
298.817
298.817
298.817
298.817
298.817
298.817
298.817
298.818
298.818
298.818
298.818
298.818
298.818
298.818
298.818
298.818
298.818
298.818
298.818
298.818
298.818
298.818
298.818
298.818
298.818
298.818
298.818
298.818
298.818
298.818
298.818
298.818
298.818
298.818
298.818
298.818
298.818
298.818
298.818
298.818
298.818
298.818
298.818
298.818
298.818
298.818
298.818
298.818
298.818
298.818
298.818
298.818
298.818
298.818
298.818
298.818
298.818
298.818
298.818
298.818
298.818
298.818
298.818
298.818
298.818
298.818
298.818
298.818
298.818
298.818
298.818
298.818
298.818
298.818
298.818
298.818
298.818
298.818
298.818
298.818
298.818
298.818
298.818
298.818
298.818
298.818
298.818
298.818
298.818
298.818
298.818
298.818
298.818
298.818
298.818
298.818
298.818
298.818
298.818
298.818
298.818
298.818
298.818
298.818
298.818
298.818
298.818
298.818
298.818
298.818
298.818
298.818
298.818
298.818
298.818
298.818
298.818
298.818
298.818
298.706
298.706
298.705
298.704
298.702
298.7
298.698
298.695
298.691
298.687
298.682
298.677
298.671
298.664
298.657
298.649
298.64
298.631
298.621
298.611
298.6
298.589
298.578
298.567
298.556
298.545
298.535
298.525
298.515
298.506
298.497
298.489
298.482
298.475
298.469
298.463
298.457
298.452
298.447
298.442
298.438
298.433
298.429
298.425
298.42
298.416
298.412
298.407
298.402
298.398
298.393
298.387
298.382
298.377
298.372
298.366
298.361
298.356
298.351
298.345
298.34
298.335
298.331
298.326
298.322
298.318
298.314
298.31
298.307
298.303
298.301
298.298
298.295
298.293
298.291
298.289
298.288
298.286
298.285
298.284
298.283
298.283
298.282
298.281
298.281
298.281
298.281
298.281
298.281
298.281
298.281
298.281
298.281
298.281
298.282
298.282
298.282
298.283
298.283
298.284
298.284
298.284
298.285
298.285
298.286
298.286
298.287
298.287
298.287
298.288
298.288
298.289
298.289
298.29
298.29
298.29
298.291
298.291
298.292
298.292
298.292
298.293
298.293
298.293
298.294
298.294
298.295
298.295
298.295
298.296
298.296
298.296
298.296
298.297
298.297
298.297
298.298
298.298
298.298
298.299
298.299
298.299
298.299
298.3
298.3
298.3
298.3
298.301
298.301
298.301
298.301
298.302
298.302
298.302
298.302
298.303
298.303
298.303
298.303
298.304
298.304
298.304
298.304
298.305
298.305
298.305
298.305
298.305
298.306
298.306
298.306
298.306
298.307
298.307
298.307
298.307
298.307
298.308
298.308
298.308
298.308
298.309
298.309
298.309
298.309
298.309
298.31
298.31
298.31
298.31
298.31
298.311
298.311
298.311
298.311
298.311
298.311
298.312
298.312
298.312
298.312
298.312
298.313
298.313
298.313
298.313
298.313
298.313
298.314
298.314
298.314
298.314
298.314
298.314
298.314
298.315
298.315
298.315
298.315
298.315
298.315
298.315
298.315
298.316
298.316
298.316
298.316
298.316
298.316
298.316
298.316
298.316
298.317
298.317
298.317
298.317
298.317
298.317
298.317
298.317
298.317
298.317
298.317
298.318
298.318
298.318
298.318
298.318
298.318
298.318
298.318
298.318
298.318
298.318
298.318
298.319
298.319
298.319
298.319
298.319
298.319
298.319
298.319
298.319
298.319
298.319
298.319
298.319
298.319
298.32
298.32
298.32
298.32
298.32
298.32
298.32
298.32
298.32
298.32
298.32
298.32
298.32
298.32
298.321
298.321
298.321
298.321
298.321
298.321
298.321
298.321
298.321
298.321
298.321
298.321
298.321
298.321
298.322
298.322
298.322
298.322
298.322
298.322
298.322
298.322
298.322
298.322
298.322
298.322
298.322
298.323
298.323
298.323
298.323
298.323
298.323
298.323
298.323
298.323
298.323
298.323
298.323
298.323
298.323
298.324
298.324
298.324
298.324
298.324
298.324
298.324
298.324
298.324
298.324
298.324
298.324
298.324
298.324
298.324
298.325
298.325
298.325
298.325
298.325
298.325
298.325
298.325
298.325
298.325
298.325
298.325
298.325
298.325
298.325
298.325
298.325
298.325
298.325
298.325
298.326
298.326
298.326
298.326
298.326
298.326
298.326
298.326
298.326
298.326
298.326
298.326
298.326
298.326
298.326
298.326
298.326
298.326
298.326
298.326
298.326
298.326
298.326
298.326
298.326
298.326
298.326
298.326
298.326
298.326
298.326
298.326
298.326
298.326
298.326
298.326
298.326
298.326
298.326
298.326
298.326
298.327
298.327
298.327
298.327
298.327
298.327
298.327
298.327
298.327
298.327
298.327
298.327
298.327
298.327
298.327
298.327
298.327
298.327
298.327
298.327
298.327
298.327
298.327
298.327
298.327
298.327
298.327
298.327
298.327
298.327
298.327
298.327
298.327
298.327
298.327
298.327
298.327
298.327
298.327
298.327
298.327
298.327
298.327
298.327
298.327
298.327
298.327
298.327
298.327
298.327
298.327
298.327
298.327
298.327
298.327
298.327
298.327
298.327
298.327
298.327
298.327
298.327
298.327
298.327
298.327
298.327
298.327
298.327
298.327
298.327
298.327
298.327
298.327
298.327
298.327
298.327
298.327
298.327
298.327
298.327
298.327
298.327
298.327
298.327
298.327
298.327
298.327
298.327
298.327
298.327
298.327
298.327
298.327
298.327
298.327
298.327
298.327
298.327
298.327
298.327
298.327
298.327
298.327
298.327
298.327
298.327
298.327
298.327
298.327
298.327
298.327
298.327
297.895
297.9
297.905
297.911
297.915
297.923
297.933
297.944
297.957
297.971
297.985
297.998
298.011
298.024
298.037
298.049
298.06
298.068
298.074
298.078
298.079
298.079
298.076
298.071
298.065
298.058
298.049
298.04
298.03
298.021
298.012
298.003
297.995
297.988
297.981
297.975
297.969
297.963
297.958
297.953
297.948
297.944
297.939
297.935
297.93
297.926
297.921
297.917
297.912
297.907
297.902
297.897
297.892
297.886
297.881
297.876
297.87
297.865
297.86
297.855
297.849
297.845
297.84
297.835
297.831
297.827
297.823
297.819
297.816
297.813
297.81
297.807
297.805
297.803
297.801
297.799
297.797
297.796
297.795
297.794
297.793
297.792
297.792
297.791
297.791
297.791
297.791
297.79
297.79
297.791
297.791
297.791
297.791
297.791
297.792
297.792
297.792
297.793
297.793
297.794
297.794
297.794
297.795
297.795
297.796
297.796
297.797
297.797
297.798
297.798
297.798
297.799
297.799
297.8
297.8
297.801
297.801
297.801
297.802
297.802
297.802
297.803
297.803
297.804
297.804
297.804
297.805
297.805
297.805
297.806
297.806
297.806
297.807
297.807
297.807
297.807
297.808
297.808
297.808
297.809
297.809
297.809
297.809
297.81
297.81
297.81
297.81
297.811
297.811
297.811
297.811
297.812
297.812
297.812
297.812
297.813
297.813
297.813
297.813
297.814
297.814
297.814
297.814
297.815
297.815
297.815
297.815
297.816
297.816
297.816
297.816
297.816
297.817
297.817
297.817
297.817
297.818
297.818
297.818
297.818
297.818
297.819
297.819
297.819
297.819
297.819
297.82
297.82
297.82
297.82
297.82
297.821
297.821
297.821
297.821
297.821
297.822
297.822
297.822
297.822
297.822
297.822
297.823
297.823
297.823
297.823
297.823
297.823
297.824
297.824
297.824
297.824
297.824
297.824
297.824
297.825
297.825
297.825
297.825
297.825
297.825
297.825
297.825
297.826
297.826
297.826
297.826
297.826
297.826
297.826
297.826
297.826
297.827
297.827
297.827
297.827
297.827
297.827
297.827
297.827
297.827
297.827
297.828
297.828
297.828
297.828
297.828
297.828
297.828
297.828
297.828
297.828
297.828
297.828
297.828
297.829
297.829
297.829
297.829
297.829
297.829
297.829
297.829
297.829
297.829
297.829
297.829
297.829
297.829
297.83
297.83
297.83
297.83
297.83
297.83
297.83
297.83
297.83
297.83
297.83
297.83
297.83
297.83
297.831
297.831
297.831
297.831
297.831
297.831
297.831
297.831
297.831
297.831
297.831
297.831
297.831
297.831
297.832
297.832
297.832
297.832
297.832
297.832
297.832
297.832
297.832
297.832
297.832
297.832
297.832
297.833
297.833
297.833
297.833
297.833
297.833
297.833
297.833
297.833
297.833
297.833
297.833
297.833
297.833
297.834
297.834
297.834
297.834
297.834
297.834
297.834
297.834
297.834
297.834
297.834
297.834
297.834
297.834
297.834
297.835
297.835
297.835
297.835
297.835
297.835
297.835
297.835
297.835
297.835
297.835
297.835
297.835
297.835
297.835
297.835
297.835
297.835
297.835
297.835
297.836
297.836
297.836
297.836
297.836
297.836
297.836
297.836
297.836
297.836
297.836
297.836
297.836
297.836
297.836
297.836
297.836
297.836
297.836
297.836
297.836
297.836
297.836
297.836
297.836
297.836
297.836
297.836
297.836
297.836
297.836
297.836
297.836
297.836
297.836
297.836
297.836
297.836
297.836
297.836
297.836
297.836
297.837
297.837
297.837
297.837
297.837
297.837
297.837
297.837
297.837
297.837
297.837
297.837
297.837
297.837
297.837
297.837
297.837
297.837
297.837
297.837
297.837
297.837
297.837
297.837
297.837
297.837
297.837
297.837
297.837
297.837
297.837
297.837
297.837
297.837
297.837
297.837
297.837
297.837
297.837
297.837
297.837
297.837
297.837
297.837
297.837
297.837
297.837
297.837
297.837
297.837
297.837
297.837
297.837
297.837
297.837
297.837
297.837
297.837
297.837
297.837
297.837
297.837
297.837
297.837
297.837
297.837
297.837
297.837
297.837
297.837
297.837
297.837
297.837
297.837
297.837
297.837
297.837
297.837
297.837
297.837
297.837
297.837
297.837
297.837
297.837
297.837
297.837
297.837
297.837
297.837
297.837
297.837
297.837
297.837
297.837
297.837
297.837
297.837
297.837
297.837
297.837
297.837
297.837
297.837
297.837
297.837
297.837
297.837
297.837
297.837
297.837
296.136
296.156
296.183
296.208
296.224
296.258
296.304
296.357
296.419
296.485
296.554
296.622
296.694
296.772
296.855
296.941
297.024
297.103
297.176
297.242
297.303
297.358
297.405
297.445
297.477
297.501
297.516
297.525
297.528
297.527
297.523
297.516
297.509
297.502
297.494
297.487
297.481
297.475
297.469
297.464
297.459
297.454
297.449
297.445
297.44
297.435
297.43
297.425
297.42
297.415
297.41
297.405
297.4
297.394
297.389
297.383
297.378
297.373
297.367
297.362
297.357
297.352
297.348
297.343
297.339
297.335
297.331
297.327
297.324
297.321
297.318
297.315
297.313
297.311
297.309
297.307
297.305
297.304
297.303
297.302
297.301
297.3
297.3
297.3
297.299
297.299
297.299
297.299
297.299
297.299
297.299
297.299
297.3
297.3
297.3
297.301
297.301
297.301
297.302
297.302
297.303
297.303
297.304
297.304
297.304
297.305
297.305
297.306
297.306
297.307
297.307
297.308
297.308
297.309
297.309
297.309
297.31
297.31
297.311
297.311
297.311
297.312
297.312
297.312
297.313
297.313
297.314
297.314
297.314
297.315
297.315
297.315
297.315
297.316
297.316
297.316
297.317
297.317
297.317
297.318
297.318
297.318
297.318
297.319
297.319
297.319
297.319
297.32
297.32
297.32
297.32
297.321
297.321
297.321
297.321
297.322
297.322
297.322
297.322
297.323
297.323
297.323
297.323
297.324
297.324
297.324
297.324
297.325
297.325
297.325
297.325
297.325
297.326
297.326
297.326
297.326
297.327
297.327
297.327
297.327
297.327
297.328
297.328
297.328
297.328
297.328
297.329
297.329
297.329
297.329
297.329
297.33
297.33
297.33
297.33
297.33
297.33
297.331
297.331
297.331
297.331
297.331
297.332
297.332
297.332
297.332
297.332
297.332
297.333
297.333
297.333
297.333
297.333
297.333
297.333
297.334
297.334
297.334
297.334
297.334
297.334
297.334
297.334
297.335
297.335
297.335
297.335
297.335
297.335
297.335
297.335
297.335
297.336
297.336
297.336
297.336
297.336
297.336
297.336
297.336
297.336
297.336
297.337
297.337
297.337
297.337
297.337
297.337
297.337
297.337
297.337
297.337
297.337
297.337
297.337
297.338
297.338
297.338
297.338
297.338
297.338
297.338
297.338
297.338
297.338
297.338
297.338
297.338
297.338
297.339
297.339
297.339
297.339
297.339
297.339
297.339
297.339
297.339
297.339
297.339
297.339
297.339
297.339
297.34
297.34
297.34
297.34
297.34
297.34
297.34
297.34
297.34
297.34
297.34
297.34
297.34
297.34
297.341
297.341
297.341
297.341
297.341
297.341
297.341
297.341
297.341
297.341
297.341
297.341
297.341
297.342
297.342
297.342
297.342
297.342
297.342
297.342
297.342
297.342
297.342
297.342
297.342
297.342
297.342
297.343
297.343
297.343
297.343
297.343
297.343
297.343
297.343
297.343
297.343
297.343
297.343
297.343
297.343
297.343
297.344
297.344
297.344
297.344
297.344
297.344
297.344
297.344
297.344
297.344
297.344
297.344
297.344
297.344
297.344
297.344
297.344
297.344
297.344
297.344
297.345
297.345
297.345
297.345
297.345
297.345
297.345
297.345
297.345
297.345
297.345
297.345
297.345
297.345
297.345
297.345
297.345
297.345
297.345
297.345
297.345
297.345
297.345
297.345
297.345
297.345
297.345
297.345
297.345
297.345
297.345
297.345
297.345
297.345
297.345
297.345
297.345
297.345
297.345
297.345
297.345
297.345
297.346
297.346
297.346
297.346
297.346
297.346
297.346
297.346
297.346
297.346
297.346
297.346
297.346
297.346
297.346
297.346
297.346
297.346
297.346
297.346
297.346
297.346
297.346
297.346
297.346
297.346
297.346
297.346
297.346
297.346
297.346
297.346
297.346
297.346
297.346
297.346
297.346
297.346
297.346
297.346
297.346
297.346
297.346
297.346
297.346
297.346
297.346
297.346
297.346
297.346
297.346
297.346
297.346
297.346
297.346
297.346
297.346
297.346
297.346
297.346
297.346
297.346
297.346
297.346
297.346
297.346
297.346
297.346
297.346
297.346
297.346
297.346
297.346
297.346
297.346
297.346
297.346
297.346
297.346
297.346
297.346
297.346
297.346
297.346
297.346
297.346
297.346
297.346
297.346
297.346
297.346
297.346
297.346
297.346
297.346
297.346
297.346
297.346
297.346
297.346
297.346
297.346
297.346
297.346
297.346
297.346
297.346
297.346
297.346
297.346
297.346
292.924
292.964
293.03
293.08
293.106
293.174
293.271
293.382
293.516
293.662
293.81
293.962
294.127
294.312
294.518
294.736
294.957
295.173
295.382
295.585
295.784
295.978
296.163
296.334
296.488
296.621
296.734
296.824
296.894
296.944
296.978
296.997
297.007
297.009
297.006
297.001
296.994
296.988
296.982
296.976
296.97
296.965
296.96
296.955
296.95
296.945
296.94
296.935
296.93
296.924
296.919
296.914
296.908
296.903
296.897
296.892
296.887
296.881
296.876
296.871
296.866
296.861
296.856
296.852
296.847
296.843
296.84
296.836
296.833
296.83
296.827
296.824
296.822
296.82
296.818
296.816
296.815
296.814
296.812
296.811
296.811
296.81
296.81
296.809
296.809
296.809
296.809
296.809
296.809
296.809
296.809
296.809
296.81
296.81
296.81
296.811
296.811
296.811
296.812
296.812
296.813
296.813
296.814
296.814
296.815
296.815
296.815
296.816
296.816
296.817
296.817
296.818
296.818
296.819
296.819
296.819
296.82
296.82
296.821
296.821
296.821
296.822
296.822
296.823
296.823
296.823
296.824
296.824
296.824
296.825
296.825
296.825
296.826
296.826
296.826
296.826
296.827
296.827
296.827
296.828
296.828
296.828
296.828
296.829
296.829
296.829
296.829
296.83
296.83
296.83
296.831
296.831
296.831
296.831
296.832
296.832
296.832
296.832
296.832
296.833
296.833
296.833
296.833
296.834
296.834
296.834
296.834
296.835
296.835
296.835
296.835
296.835
296.836
296.836
296.836
296.836
296.837
296.837
296.837
296.837
296.837
296.838
296.838
296.838
296.838
296.838
296.839
296.839
296.839
296.839
296.839
296.84
296.84
296.84
296.84
296.84
296.841
296.841
296.841
296.841
296.841
296.841
296.842
296.842
296.842
296.842
296.842
296.842
296.843
296.843
296.843
296.843
296.843
296.843
296.843
296.844
296.844
296.844
296.844
296.844
296.844
296.844
296.844
296.845
296.845
296.845
296.845
296.845
296.845
296.845
296.845
296.845
296.846
296.846
296.846
296.846
296.846
296.846
296.846
296.846
296.846
296.846
296.847
296.847
296.847
296.847
296.847
296.847
296.847
296.847
296.847
296.847
296.847
296.847
296.847
296.848
296.848
296.848
296.848
296.848
296.848
296.848
296.848
296.848
296.848
296.848
296.848
296.848
296.848
296.849
296.849
296.849
296.849
296.849
296.849
296.849
296.849
296.849
296.849
296.849
296.849
296.849
296.849
296.85
296.85
296.85
296.85
296.85
296.85
296.85
296.85
296.85
296.85
296.85
296.85
296.85
296.85
296.851
296.851
296.851
296.851
296.851
296.851
296.851
296.851
296.851
296.851
296.851
296.851
296.851
296.852
296.852
296.852
296.852
296.852
296.852
296.852
296.852
296.852
296.852
296.852
296.852
296.852
296.852
296.853
296.853
296.853
296.853
296.853
296.853
296.853
296.853
296.853
296.853
296.853
296.853
296.853
296.853
296.853
296.854
296.854
296.854
296.854
296.854
296.854
296.854
296.854
296.854
296.854
296.854
296.854
296.854
296.854
296.854
296.854
296.854
296.854
296.854
296.854
296.855
296.855
296.855
296.855
296.855
296.855
296.855
296.855
296.855
296.855
296.855
296.855
296.855
296.855
296.855
296.855
296.855
296.855
296.855
296.855
296.855
296.855
296.855
296.855
296.855
296.855
296.855
296.855
296.855
296.855
296.855
296.855
296.855
296.855
296.855
296.855
296.855
296.855
296.855
296.855
296.855
296.855
296.855
296.856
296.856
296.856
296.856
296.856
296.856
296.856
296.856
296.856
296.856
296.856
296.856
296.856
296.856
296.856
296.856
296.856
296.856
296.856
296.856
296.856
296.856
296.856
296.856
296.856
296.856
296.856
296.856
296.856
296.856
296.856
296.856
296.856
296.856
296.856
296.856
296.856
296.856
296.856
296.856
296.856
296.856
296.856
296.856
296.856
296.856
296.856
296.856
296.856
296.856
296.856
296.856
296.856
296.856
296.856
296.856
296.856
296.856
296.856
296.856
296.856
296.856
296.856
296.856
296.856
296.856
296.856
296.856
296.856
296.856
296.856
296.856
296.856
296.856
296.856
296.856
296.856
296.856
296.856
296.856
296.856
296.856
296.856
296.856
296.856
296.856
296.856
296.856
296.856
296.856
296.856
296.856
296.856
296.856
296.856
296.856
296.856
296.856
296.856
296.856
296.856
296.856
296.856
296.856
296.856
296.856
296.856
296.856
296.856
296.856
288.834
288.877
288.962
289.028
289.058
289.149
289.274
289.417
289.598
289.796
289.995
290.203
290.44
290.714
291.024
291.36
291.71
292.062
292.415
292.775
293.146
293.528
293.914
294.293
294.656
294.996
295.308
295.586
295.826
296.026
296.185
296.306
296.391
296.448
296.48
296.496
296.5
296.499
296.494
296.488
296.482
296.476
296.47
296.465
296.459
296.454
296.449
296.443
296.438
296.432
296.427
296.421
296.416
296.41
296.405
296.399
296.394
296.388
296.383
296.378
296.373
296.368
296.363
296.359
296.354
296.35
296.347
296.343
296.34
296.337
296.334
296.332
296.329
296.327
296.325
296.324
296.322
296.321
296.32
296.319
296.319
296.318
296.318
296.317
296.317
296.317
296.317
296.317
296.317
296.317
296.317
296.318
296.318
296.318
296.319