/*--------------------------------*- C++ -*----------------------------------*\
| =========                 |                                                 |
| \\      /  F ield         | OpenFOAM: The Open Source CFD Toolbox           |
|  \\    /   O peration     | Version:  v2012                                 |
|   \\  /    A nd           | Website:  www.openfoam.com                      |
|    \\/     M anipulation  |                                                 |
\*---------------------------------------------------------------------------*/
FoamFile
{
    version     2.0;
    format      ascii;
    class       volScalarField;
    location    "200";
    object      theta;
}
// * * * * * * * * * * * * * * * * * * * * * * * * * * * * * * * * * * * * * //

dimensions      [0 0 0 1 0 0 0];


internalField   nonuniform List<scalar> 
65536
(
0.439596
0.43826
0.436693
0.434448
0.431539
0.427906
0.423594
0.418596
0.412936
0.406637
0.39972
0.392218
0.384164
0.3756
0.366568
0.357117
0.347297
0.337165
0.326786
0.31623
0.305572
0.294887
0.284251
0.273734
0.263409
0.253342
0.243595
0.234221
0.22527
0.216776
0.208767
0.201257
0.194248
0.187729
0.181676
0.176053
0.170818
0.165919
0.161302
0.156908
0.152679
0.148556
0.144486
0.140419
0.136312
0.132129
0.127841
0.123429
0.118879
0.114187
0.109357
0.104398
0.0993256
0.0941601
0.0889261
0.083651
0.0783641
0.0730959
0.0678768
0.0627367
0.0577041
0.0528054
0.0480648
0.0435038
0.0391409
0.0349913
0.0310673
0.0273778
0.0239289
0.0207237
0.0177625
0.0150436
0.0125625
0.0103135
0.00828876
0.00647946
0.00487555
0.00346637
0.00224053
0.00118651
0.000292454
-0.000453266
-0.00106229
-0.00154578
-0.00191471
-0.00217941
-0.00234985
-0.00243532
-0.00244467
-0.00238602
-0.00226706
-0.00209476
-0.00187565
-0.00161563
-0.00132016
-0.000994138
-0.000642072
-0.000267973
0.000124489
0.000532071
0.000951828
0.00138117
0.00181777
0.00225959
0.00270481
0.00315184
0.00359931
0.00404599
0.00449086
0.004933
0.00537166
0.00580618
0.00623604
0.00666078
0.00708005
0.00749356
0.00790108
0.00830247
0.00869762
0.00908645
0.00946896
0.00984515
0.0102151
0.0105788
0.0109364
0.011288
0.0116338
0.0119738
0.0123083
0.0126374
0.0129612
0.0132799
0.0135938
0.0139029
0.0142075
0.0145078
0.0148039
0.015096
0.0153842
0.0156689
0.01595
0.0162278
0.0165025
0.0167741
0.0170429
0.017309
0.0175725
0.0178335
0.0180922
0.0183487
0.018603
0.0188554
0.0191058
0.0193544
0.0196013
0.0198465
0.0200901
0.0203321
0.0205727
0.0208119
0.0210497
0.0212861
0.0215212
0.0217551
0.0219877
0.022219
0.0224491
0.022678
0.0229057
0.0231321
0.0233574
0.0235813
0.0238041
0.0240255
0.0242457
0.0244646
0.0246821
0.0248983
0.0251131
0.0253264
0.0255383
0.0257487
0.0259576
0.0261649
0.0263706
0.0265746
0.026777
0.0269776
0.0271765
0.0273735
0.0275687
0.027762
0.0279534
0.0281428
0.0283302
0.0285156
0.0286989
0.0288801
0.0290592
0.029236
0.0294107
0.0295832
0.0297534
0.0299213
0.030087
0.0302503
0.0304113
0.03057
0.0307264
0.0308803
0.0310319
0.0311812
0.0313281
0.0314726
0.0316148
0.0317546
0.0318921
0.0320272
0.03216
0.0322906
0.0324188
0.0325448
0.0326686
0.0327902
0.0329095
0.0330268
0.0331419
0.033255
0.033366
0.033475
0.033582
0.0336872
0.0337904
0.0338919
0.0339915
0.0340894
0.0341857
0.0342802
0.0343733
0.0344647
0.0345548
0.0346433
0.0347306
0.0348164
0.0349011
0.0349845
0.0350668
0.035148
0.0352282
0.0353073
0.0353856
0.0354629
0.0355395
0.0356153
0.0356903
0.0357647
0.0358385
0.0359118
0.0359845
0.0360568
0.0361286
0.0362001
0.0362713
0.0363421
0.0364128
0.0364832
0.0365535
0.0366237
0.0366937
0.0367637
0.0368337
0.0369037
0.0369738
0.0370439
0.0371141
0.0371844
0.0372548
0.0373254
0.0373962
0.0374671
0.0375383
0.0376096
0.0376812
0.0377531
0.0378251
0.0378974
0.03797
0.0380428
0.0381158
0.0381891
0.0382627
0.0383364
0.0384104
0.0384846
0.0385591
0.0386337
0.0387085
0.0387835
0.0388586
0.0389339
0.0390093
0.0390847
0.0391603
0.0392359
0.0393116
0.0393873
0.0394629
0.0395385
0.0396141
0.0396896
0.0397649
0.0398402
0.0399152
0.0399901
0.0400647
0.0401391
0.0402132
0.040287
0.0403604
0.0404335
0.0405062
0.0405785
0.0406503
0.0407216
0.0407925
0.0408628
0.0409325
0.0410017
0.0410702
0.0411381
0.0412054
0.0412719
0.0413378
0.0414029
0.0414673
0.0415309
0.0415937
0.0416557
0.0417169
0.0417772
0.0418367
0.0418953
0.041953
0.0420098
0.0420657
0.0421206
0.0421746
0.0422277
0.0422798
0.042331
0.0423812
0.0424304
0.0424786
0.0425258
0.0425721
0.0426174
0.0426617
0.042705
0.0427473
0.0427887
0.042829
0.0428684
0.0429068
0.0429443
0.0429808
0.0430164
0.043051
0.0430846
0.0431174
0.0431492
0.0431802
0.0432102
0.0432394
0.0432677
0.0432952
0.0433218
0.0433476
0.0433725
0.0433967
0.0434201
0.0434427
0.0434646
0.0434857
0.0435061
0.0435258
0.0435449
0.0435632
0.0435809
0.043598
0.0436144
0.0436303
0.0436455
0.0436602
0.0436743
0.0436879
0.043701
0.0437135
0.0437256
0.0437372
0.0437484
0.0437591
0.0437695
0.0437794
0.0437889
0.043798
0.0438068
0.0438153
0.0438234
0.0438312
0.0438387
0.0438459
0.0438529
0.0438596
0.043866
0.0438723
0.0438783
0.0438841
0.0438897
0.0438951
0.0439003
0.0439054
0.0439104
0.0439152
0.0439199
0.0439244
0.0439289
0.0439332
0.0439375
0.0439417
0.0439458
0.0439498
0.0439538
0.0439577
0.0439616
0.0439654
0.0439692
0.043973
0.0439767
0.0439805
0.0439842
0.0439879
0.0439916
0.0439952
0.0439989
0.0440026
0.0440063
0.04401
0.0440137
0.0440174
0.0440212
0.0440249
0.0440287
0.0440325
0.0440363
0.0440401
0.0440439
0.0440477
0.0440516
0.0440554
0.0440593
0.0440632
0.0440671
0.044071
0.0440749
0.0440788
0.0440827
0.0440866
0.0440905
0.0440943
0.0440982
0.0441021
0.0441059
0.0441097
0.0441135
0.0441172
0.044121
0.0441246
0.0441283
0.0441319
0.0441354
0.0441389
0.0441424
0.0441457
0.0441491
0.0441523
0.0441555
0.0441586
0.0441616
0.0441645
0.0441673
0.0441701
0.0441727
0.0441753
0.0441777
0.04418
0.0441823
0.0441844
0.0441864
0.0441883
0.04419
0.0441917
0.0441932
0.0441946
0.0441958
0.0441969
0.0441979
0.0441987
0.0441995
0.0442
0.0442004
0.0442007
0.0442006
0.440306
0.439794
0.43842
0.436215
0.433321
0.429689
0.425368
0.420372
0.414687
0.408371
0.401417
0.393882
0.385786
0.377187
0.368121
0.358638
0.348783
0.338613
0.328193
0.317598
0.306906
0.296194
0.285535
0.275001
0.26466
0.254578
0.244817
0.23543
0.226463
0.217956
0.209934
0.202413
0.195395
0.188869
0.182811
0.177184
0.171945
0.167043
0.162423
0.158026
0.153794
0.149668
0.145595
0.141525
0.137415
0.133228
0.128936
0.124519
0.119965
0.115269
0.110434
0.10547
0.100392
0.0952213
0.0899819
0.0847013
0.079409
0.0741352
0.0689106
0.0637649
0.0587266
0.053822
0.0490755
0.0445081
0.0401385
0.0359818
0.03205
0.0283522
0.0248941
0.0216789
0.0187069
0.015976
0.0134821
0.011219
0.00917934
0.00735397
0.00573302
0.00430572
0.00306087
0.00198684
0.00107199
0.000304618
-0.000326704
-0.000833197
-0.0012256
-0.0015143
-0.00170904
-0.00181915
-0.00185329
-0.00181959
-0.00172557
-0.00157821
-0.00138392
-0.00114858
-0.000877556
-0.000575739
-0.000247549
0.000102997
0.0004723
0.000857114
0.00125454
0.00166199
0.00207717
0.00249803
0.00292278
0.00334983
0.0037778
0.00420548
0.00463183
0.00505594
0.00547705
0.00589451
0.00630777
0.00671638
0.00711996
0.00751823
0.00791096
0.00829798
0.00867916
0.00905445
0.0094238
0.00978723
0.0101448
0.0104965
0.0108424
0.0111827
0.0115174
0.0118468
0.0121709
0.0124899
0.012804
0.0131133
0.0134179
0.0137181
0.0140141
0.014306
0.0145939
0.0148781
0.0151586
0.0154358
0.0157097
0.0159805
0.0162483
0.0165133
0.0167757
0.0170355
0.0172929
0.017548
0.0178009
0.0180518
0.0183007
0.0185478
0.0187931
0.0190368
0.0192788
0.0195193
0.0197583
0.0199959
0.0202322
0.0204672
0.0207009
0.0209333
0.0211646
0.0213947
0.0216236
0.0218514
0.0220781
0.0223036
0.022528
0.0227512
0.0229734
0.0231943
0.0234141
0.0236327
0.0238501
0.0240663
0.0242812
0.0244948
0.0247071
0.024918
0.0251276
0.0253357
0.0255423
0.0257474
0.025951
0.026153
0.0263533
0.026552
0.0267489
0.0269441
0.0271375
0.027329
0.0275187
0.0277065
0.0278922
0.028076
0.0282578
0.0284375
0.028615
0.0287905
0.0289638
0.0291349
0.0293038
0.0294704
0.0296348
0.029797
0.0299568
0.0301143
0.0302695
0.0304224
0.030573
0.0307212
0.0308671
0.0310106
0.0311518
0.0312907
0.0314272
0.0315615
0.0316935
0.0318231
0.0319506
0.0320758
0.0321988
0.0323196
0.0324382
0.0325547
0.0326692
0.0327815
0.0328919
0.0330002
0.0331067
0.0332112
0.0333138
0.0334147
0.0335138
0.0336111
0.0337068
0.0338009
0.0338934
0.0339844
0.0340739
0.034162
0.0342487
0.0343342
0.0344184
0.0345014
0.0345833
0.0346641
0.0347438
0.0348226
0.0349005
0.0349775
0.0350537
0.0351291
0.0352038
0.0352779
0.0353514
0.0354243
0.0354967
0.0355687
0.0356403
0.0357115
0.0357823
0.0358529
0.0359233
0.0359935
0.0360635
0.0361334
0.0362032
0.036273
0.0363428
0.0364126
0.0364824
0.0365523
0.0366222
0.0366923
0.0367626
0.036833
0.0369035
0.0369743
0.0370453
0.0371165
0.0371879
0.0372595
0.0373314
0.0374036
0.037476
0.0375486
0.0376215
0.0376946
0.037768
0.0378416
0.0379155
0.0379895
0.0380638
0.0381383
0.038213
0.0382878
0.0383628
0.038438
0.0385132
0.0385886
0.038664
0.0387395
0.0388151
0.0388906
0.0389662
0.0390417
0.0391171
0.0391925
0.0392678
0.0393429
0.0394178
0.0394926
0.0395671
0.0396414
0.0397154
0.0397891
0.0398625
0.0399355
0.0400081
0.0400802
0.040152
0.0402232
0.040294
0.0403642
0.0404338
0.0405029
0.0405714
0.0406392
0.0407064
0.0407729
0.0408387
0.0409037
0.040968
0.0410316
0.0410943
0.0411562
0.0412174
0.0412776
0.041337
0.0413956
0.0414532
0.0415099
0.0415658
0.0416207
0.0416746
0.0417276
0.0417797
0.0418308
0.0418809
0.0419301
0.0419783
0.0420255
0.0420717
0.0421169
0.0421612
0.0422044
0.0422467
0.042288
0.0423284
0.0423677
0.0424061
0.0424435
0.04248
0.0425155
0.0425501
0.0425838
0.0426165
0.0426483
0.0426792
0.0427093
0.0427384
0.0427667
0.0427941
0.0428207
0.0428465
0.0428715
0.0428956
0.042919
0.0429416
0.0429635
0.0429846
0.043005
0.0430247
0.0430437
0.0430621
0.0430798
0.0430968
0.0431133
0.0431291
0.0431443
0.043159
0.0431731
0.0431867
0.0431998
0.0432124
0.0432245
0.0432361
0.0432473
0.043258
0.0432683
0.0432782
0.0432877
0.0432969
0.0433057
0.0433141
0.0433222
0.0433301
0.0433376
0.0433448
0.0433518
0.0433585
0.0433649
0.0433712
0.0433772
0.043383
0.0433886
0.043394
0.0433993
0.0434044
0.0434094
0.0434142
0.0434189
0.0434235
0.0434279
0.0434323
0.0434366
0.0434408
0.0434449
0.043449
0.0434529
0.0434569
0.0434608
0.0434646
0.0434685
0.0434722
0.043476
0.0434798
0.0434835
0.0434872
0.0434909
0.0434946
0.0434984
0.0435021
0.0435058
0.0435095
0.0435133
0.043517
0.0435208
0.0435246
0.0435284
0.0435322
0.043536
0.0435398
0.0435437
0.0435476
0.0435514
0.0435553
0.0435592
0.0435631
0.043567
0.043571
0.0435749
0.0435788
0.0435827
0.0435867
0.0435906
0.0435945
0.0435984
0.0436022
0.0436061
0.0436099
0.0436137
0.0436175
0.0436212
0.0436249
0.0436286
0.0436322
0.0436357
0.0436392
0.0436427
0.043646
0.0436493
0.0436526
0.0436558
0.0436588
0.0436618
0.0436648
0.0436676
0.0436703
0.043673
0.0436755
0.0436779
0.0436802
0.0436825
0.0436846
0.0436865
0.0436884
0.0436901
0.0436918
0.0436932
0.0436946
0.0436958
0.0436969
0.0436979
0.0436987
0.0436994
0.0437
0.0437004
0.0437008
0.0437008
0.448098
0.447308
0.445769
0.443516
0.440547
0.436851
0.43246
0.427337
0.421526
0.415046
0.407923
0.400181
0.39186
0.38301
0.373679
0.363911
0.353748
0.343246
0.33248
0.321536
0.310506
0.299475
0.28852
0.277711
0.267117
0.256803
0.246829
0.237248
0.228103
0.219429
0.211252
0.203586
0.196433
0.189781
0.183602
0.177861
0.172513
0.167507
0.16279
0.158302
0.153986
0.149784
0.145641
0.141508
0.137343
0.133108
0.128776
0.124325
0.119744
0.115028
0.110179
0.105206
0.100126
0.0949569
0.0897237
0.0844532
0.0791743
0.0739168
0.0687107
0.0635853
0.0585685
0.0536866
0.0489632
0.0444193
0.040073
0.0359392
0.0320298
0.0283535
0.0249161
0.0217205
0.018767
0.0160535
0.0135758
0.0113279
0.0093023
0.00748998
0.0058811
0.00446497
0.00323042
0.00216594
0.00125991
0.000500735
-0.000122982
-0.000622365
-0.00100814
-0.00129059
-0.00147947
-0.00158401
-0.00161287
-0.00157411
-0.00147525
-0.00132323
-0.00112442
-0.000884691
-0.000609387
-0.000303376
2.89214e-05
0.000383517
0.000756807
0.00114557
0.00154689
0.00195821
0.00237721
0.00280187
0.00323039
0.00366118
0.00409286
0.00452422
0.00495422
0.00538195
0.00580665
0.00622767
0.00664444
0.00705654
0.00746356
0.00786524
0.00826133
0.00865166
0.00903612
0.00941464
0.00978717
0.0101537
0.0105143
0.0108691
0.011218
0.0115612
0.0118989
0.0122311
0.012558
0.0128797
0.0131964
0.0135083
0.0138156
0.0141183
0.0144167
0.014711
0.0150013
0.0152878
0.0155706
0.01585
0.0161261
0.016399
0.0166689
0.0169359
0.0172003
0.017462
0.0177213
0.0179782
0.018233
0.0184856
0.0187363
0.0189851
0.019232
0.0194772
0.0197208
0.0199628
0.0202034
0.0204424
0.0206801
0.0209165
0.0211515
0.0213853
0.0216178
0.0218492
0.0220793
0.0223083
0.0225361
0.0227627
0.0229882
0.0232126
0.0234357
0.0236577
0.0238785
0.0240981
0.0243164
0.0245335
0.0247493
0.0249638
0.0251769
0.0253887
0.025599
0.0258079
0.0260153
0.0262211
0.0264254
0.0266281
0.0268291
0.0270285
0.0272261
0.0274219
0.0276159
0.0278081
0.0279983
0.0281867
0.028373
0.0285573
0.0287396
0.0289198
0.0290979
0.0292739
0.0294476
0.0296192
0.0297886
0.0299557
0.0301205
0.030283
0.0304433
0.0306012
0.0307568
0.0309101
0.031061
0.0312096
0.0313558
0.0314997
0.0316413
0.0317805
0.0319174
0.0320519
0.0321842
0.0323142
0.0324419
0.0325674
0.0326907
0.0328118
0.0329307
0.0330475
0.0331621
0.0332748
0.0333853
0.0334939
0.0336006
0.0337053
0.0338082
0.0339093
0.0340086
0.0341062
0.034202
0.0342963
0.034389
0.0344802
0.0345699
0.0346582
0.0347451
0.0348307
0.0349151
0.0349983
0.0350803
0.0351612
0.0352411
0.0353201
0.0353981
0.0354752
0.0355516
0.0356271
0.035702
0.0357762
0.0358498
0.0359228
0.0359953
0.0360674
0.0361391
0.0362104
0.0362814
0.0363521
0.0364225
0.0364928
0.0365629
0.0366329
0.0367028
0.0367726
0.0368425
0.0369123
0.0369822
0.0370522
0.0371222
0.0371924
0.0372627
0.0373331
0.0374037
0.0374745
0.0375455
0.0376168
0.0376882
0.0377599
0.0378318
0.037904
0.0379764
0.0380491
0.038122
0.0381952
0.0382686
0.0383422
0.0384161
0.0384901
0.0385644
0.0386389
0.0387136
0.0387884
0.0388634
0.0389386
0.0390138
0.0390892
0.0391646
0.0392401
0.0393156
0.0393912
0.0394667
0.0395422
0.0396176
0.039693
0.0397682
0.0398433
0.0399182
0.039993
0.0400675
0.0401417
0.0402157
0.0402893
0.0403627
0.0404356
0.0405082
0.0405803
0.040652
0.0407232
0.040794
0.0408641
0.0409337
0.0410028
0.0410712
0.041139
0.0412061
0.0412726
0.0413383
0.0414033
0.0414676
0.0415311
0.0415938
0.0416556
0.0417167
0.0417769
0.0418363
0.0418948
0.0419524
0.0420091
0.0420648
0.0421197
0.0421736
0.0422266
0.0422786
0.0423297
0.0423798
0.0424289
0.042477
0.0425242
0.0425704
0.0426156
0.0426598
0.042703
0.0427452
0.0427865
0.0428268
0.0428661
0.0429045
0.0429419
0.0429783
0.0430138
0.0430484
0.043082
0.0431147
0.0431465
0.0431774
0.0432074
0.0432366
0.0432648
0.0432923
0.0433188
0.0433446
0.0433695
0.0433937
0.043417
0.0434396
0.0434615
0.0434826
0.043503
0.0435227
0.0435417
0.0435601
0.0435778
0.0435948
0.0436113
0.0436271
0.0436423
0.043657
0.0436712
0.0436848
0.0436978
0.0437104
0.0437225
0.0437341
0.0437453
0.0437561
0.0437664
0.0437763
0.0437859
0.043795
0.0438038
0.0438123
0.0438204
0.0438283
0.0438358
0.0438431
0.0438501
0.0438568
0.0438633
0.0438695
0.0438756
0.0438814
0.043887
0.0438925
0.0438978
0.0439029
0.0439079
0.0439128
0.0439175
0.0439221
0.0439266
0.043931
0.0439353
0.0439396
0.0439437
0.0439478
0.0439518
0.0439558
0.0439597
0.0439636
0.0439675
0.0439713
0.0439751
0.0439789
0.0439826
0.0439864
0.0439901
0.0439939
0.0439976
0.0440014
0.0440052
0.0440089
0.0440127
0.0440165
0.0440203
0.0440241
0.0440279
0.0440318
0.0440356
0.0440395
0.0440434
0.0440473
0.0440512
0.0440551
0.044059
0.044063
0.0440669
0.0440709
0.0440749
0.0440788
0.0440828
0.0440867
0.0440907
0.0440946
0.0440985
0.0441024
0.0441063
0.0441102
0.044114
0.0441178
0.0441216
0.0441253
0.044129
0.0441326
0.0441362
0.0441397
0.0441432
0.0441466
0.0441499
0.0441532
0.0441564
0.0441595
0.0441625
0.0441654
0.0441683
0.044171
0.0441737
0.0441763
0.0441787
0.044181
0.0441833
0.0441854
0.0441874
0.0441893
0.044191
0.0441927
0.0441942
0.0441955
0.0441968
0.0441979
0.0441989
0.0441997
0.0442004
0.0442009
0.0442014
0.0442016
0.0442018
0.423128
0.423
0.422168
0.420919
0.419026
0.416925
0.414425
0.411347
0.407809
0.403734
0.399027
0.393622
0.387563
0.380908
0.373663
0.365785
0.357221
0.347972
0.338107
0.327747
0.317023
0.306058
0.29496
0.283839
0.27281
0.26199
0.251484
0.241381
0.231746
0.22263
0.214063
0.20606
0.198617
0.191711
0.185303
0.179347
0.173794
0.168589
0.163678
0.159004
0.154508
0.150132
0.145823
0.141531
0.137214
0.132836
0.128367
0.123788
0.119087
0.114259
0.109306
0.104238
0.0990707
0.0938232
0.0885198
0.083187
0.0778535
0.0725491
0.0673031
0.0621446
0.0571012
0.0521984
0.0474597
0.0429053
0.0385531
0.0344177
0.0305104
0.0268396
0.0234108
0.0202265
0.0172868
0.0145891
0.0121291
0.00990049
0.0078954
0.00610471
0.00451836
0.00312548
0.00191473
0.000874434
-7.16477e-06
-0.000741803
-0.00134099
-0.00181596
-0.00217753
-0.00243606
-0.00260138
-0.00268279
-0.00268899
-0.0026281
-0.00250766
-0.00233464
-0.00211545
-0.00185595
-0.0015615
-0.00123699
-0.000886831
-0.000515009
-0.000125122
0.000279609
0.000696296
0.00112237
0.00155555
0.00199381
0.00243536
0.00287866
0.00332231
0.00376514
0.00420612
0.00464437
0.00507912
0.00550975
0.00593573
0.00635661
0.00677205
0.00718176
0.00758553
0.00798321
0.00837468
0.00875991
0.00913885
0.00951154
0.00987801
0.0102383
0.0105926
0.010941
0.0112835
0.0116204
0.0119517
0.0122777
0.0125986
0.0129144
0.0132253
0.0135317
0.0138335
0.0141311
0.0144245
0.014714
0.0149998
0.0152819
0.0155606
0.015836
0.0161084
0.0163777
0.0166443
0.0169082
0.0171695
0.0174285
0.0176851
0.0179395
0.0181919
0.0184424
0.0186909
0.0189377
0.0191828
0.0194262
0.0196681
0.0199085
0.0201474
0.020385
0.0206212
0.0208561
0.0210897
0.0213221
0.0215532
0.0217831
0.0220119
0.0222394
0.0224657
0.0226909
0.0229149
0.0231376
0.0233591
0.0235794
0.0237984
0.0240162
0.0242326
0.0244477
0.0246614
0.0248737
0.0250846
0.025294
0.0255019
0.0257083
0.025913
0.0261162
0.0263177
0.0265174
0.0267154
0.0269117
0.027106
0.0272986
0.0274892
0.0276778
0.0278645
0.0280492
0.0282318
0.0284123
0.0285907
0.0287669
0.028941
0.0291128
0.0292824
0.0294498
0.0296148
0.0297776
0.0299381
0.0300963
0.0302521
0.0304056
0.0305567
0.0307055
0.0308519
0.030996
0.0311377
0.0312771
0.0314142
0.0315489
0.0316813
0.0318115
0.0319394
0.032065
0.0321885
0.0323097
0.0324287
0.0325457
0.0326605
0.0327732
0.032884
0.0329927
0.0330995
0.0332043
0.0333073
0.0334085
0.0335079
0.0336056
0.0337016
0.033796
0.0338888
0.0339801
0.0340699
0.0341583
0.0342453
0.034331
0.0344155
0.0344987
0.0345808
0.0346618
0.0347418
0.0348208
0.0348989
0.0349761
0.0350525
0.0351282
0.0352031
0.0352774
0.035351
0.0354241
0.0354967
0.0355688
0.0356405
0.0357119
0.0357829
0.0358536
0.0359241
0.0359944
0.0360646
0.0361346
0.0362045
0.0362744
0.0363443
0.0364141
0.036484
0.036554
0.0366241
0.0366942
0.0367645
0.036835
0.0369056
0.0369764
0.0370474
0.0371186
0.0371901
0.0372617
0.0373337
0.0374058
0.0374782
0.0375508
0.0376237
0.0376969
0.0377702
0.0378438
0.0379177
0.0379917
0.038066
0.0381404
0.038215
0.0382898
0.0383648
0.0384399
0.0385151
0.0385904
0.0386658
0.0387412
0.0388167
0.0388921
0.0389676
0.039043
0.0391184
0.0391937
0.0392688
0.0393439
0.0394187
0.0394934
0.0395678
0.039642
0.0397159
0.0397895
0.0398627
0.0399356
0.0400081
0.0400801
0.0401517
0.0402229
0.0402935
0.0403636
0.0404331
0.0405021
0.0405704
0.0406381
0.0407052
0.0407715
0.0408372
0.0409021
0.0409663
0.0410297
0.0410923
0.0411541
0.0412151
0.0412752
0.0413345
0.0413929
0.0414504
0.0415071
0.0415628
0.0416175
0.0416714
0.0417243
0.0417762
0.0418272
0.0418772
0.0419263
0.0419744
0.0420215
0.0420676
0.0421127
0.0421569
0.0422
0.0422422
0.0422834
0.0423237
0.042363
0.0424013
0.0424386
0.042475
0.0425105
0.042545
0.0425786
0.0426112
0.042643
0.0426739
0.0427038
0.0427329
0.0427612
0.0427886
0.0428151
0.0428409
0.0428658
0.0428899
0.0429133
0.0429359
0.0429577
0.0429788
0.0429992
0.0430189
0.0430379
0.0430562
0.0430739
0.043091
0.0431074
0.0431233
0.0431385
0.0431532
0.0431673
0.043181
0.0431941
0.0432066
0.0432188
0.0432304
0.0432416
0.0432524
0.0432627
0.0432727
0.0432822
0.0432914
0.0433003
0.0433088
0.0433169
0.0433248
0.0433324
0.0433396
0.0433467
0.0433534
0.0433599
0.0433662
0.0433723
0.0433782
0.0433839
0.0433894
0.0433947
0.0433999
0.0434049
0.0434098
0.0434146
0.0434193
0.0434238
0.0434282
0.0434326
0.0434369
0.0434411
0.0434452
0.0434493
0.0434533
0.0434573
0.0434612
0.0434651
0.043469
0.0434729
0.0434767
0.0434805
0.0434843
0.0434881
0.0434919
0.0434957
0.0434995
0.0435033
0.0435072
0.043511
0.0435148
0.0435187
0.0435226
0.0435264
0.0435303
0.0435342
0.0435382
0.0435421
0.0435461
0.04355
0.043554
0.043558
0.043562
0.043566
0.04357
0.043574
0.043578
0.043582
0.043586
0.04359
0.043594
0.0435979
0.0436019
0.0436058
0.0436097
0.0436136
0.0436174
0.0436212
0.043625
0.0436287
0.0436324
0.043636
0.0436396
0.0436431
0.0436465
0.0436499
0.0436532
0.0436564
0.0436595
0.0436626
0.0436656
0.0436684
0.0436712
0.0436739
0.0436765
0.043679
0.0436813
0.0436836
0.0436857
0.0436877
0.0436896
0.0436914
0.043693
0.0436945
0.0436959
0.0436972
0.0436983
0.0436993
0.0437001
0.0437008
0.0437014
0.0437018
0.043702
0.0437021
0.102535
0.107253
0.112633
0.118073
0.122258
0.130113
0.140359
0.151698
0.164702
0.178504
0.192113
0.205107
0.217945
0.231003
0.244091
0.256447
0.267149
0.275573
0.281532
0.285142
0.286574
0.285932
0.28328
0.278727
0.272491
0.264886
0.256285
0.247066
0.23759
0.228168
0.219059
0.210442
0.202413
0.194992
0.188146
0.18182
0.17595
0.170469
0.165312
0.160411
0.155706
0.151137
0.146649
0.142195
0.137729
0.133215
0.128626
0.123938
0.119141
0.114227
0.109201
0.104069
0.0988482
0.0935566
0.0882177
0.0828581
0.0775058
0.0721895
0.0669386
0.0617816
0.056745
0.0518541
0.0471318
0.0425982
0.0382701
0.0341615
0.0302834
0.0266439
0.0232478
0.0200973
0.017192
0.0145293
0.0121043
0.00991041
0.00793962
0.00618259
0.00462902
0.00326795
0.00208786
0.00107704
0.000223612
-0.000484148
-0.00105784
-0.00150866
-0.00184748
-0.0020846
-0.00222989
-0.00229255
-0.0022813
-0.00220419
-0.00206872
-0.00188181
-0.00164981
-0.00137854
-0.0010733
-0.000738915
-0.000379752
2.64169e-07
0.000397578
0.000809029
0.00123177
0.00166329
0.00210133
0.00254393
0.00298933
0.00343602
0.00388265
0.00432808
0.0047713
0.00521146
0.00564784
0.00607982
0.0065069
0.00692866
0.00734477
0.00775497
0.00815906
0.0085569
0.0089484
0.00933352
0.00971225
0.0100846
0.0104507
0.0108105
0.0111642
0.011512
0.0118538
0.01219
0.0125205
0.0128457
0.0131657
0.0134806
0.0137907
0.0140961
0.014397
0.0146937
0.0149861
0.0152747
0.0155594
0.0158406
0.0161183
0.0163928
0.0166642
0.0169326
0.0171982
0.0174611
0.0177215
0.0179795
0.0182352
0.0184887
0.0187402
0.0189897
0.0192374
0.0194833
0.0197275
0.01997
0.0202111
0.0204506
0.0206888
0.0209255
0.0211609
0.021395
0.0216279
0.0218595
0.0220899
0.0223191
0.0225471
0.022774
0.0229996
0.0232241
0.0234474
0.0236695
0.0238904
0.02411
0.0243284
0.0245456
0.0247614
0.0249759
0.0251891
0.0254008
0.0256112
0.0258201
0.0260274
0.0262333
0.0264375
0.0266402
0.0268412
0.0270405
0.027238
0.0274338
0.0276278
0.0278199
0.02801
0.0281983
0.0283846
0.0285688
0.0287511
0.0289312
0.0291092
0.0292851
0.0294588
0.0296303
0.0297996
0.0299666
0.0301314
0.0302938
0.030454
0.0306119
0.0307674
0.0309206
0.0310715
0.03122
0.0313662
0.03151
0.0316515
0.0317907
0.0319275
0.032062
0.0321943
0.0323242
0.0324519
0.0325773
0.0327006
0.0328216
0.0329405
0.0330573
0.0331719
0.0332845
0.0333951
0.0335036
0.0336103
0.033715
0.0338179
0.0339189
0.0340182
0.0341158
0.0342116
0.0343059
0.0343986
0.0344897
0.0345794
0.0346677
0.0347546
0.0348402
0.0349246
0.0350078
0.0350898
0.0351707
0.0352506
0.0353295
0.0354075
0.0354847
0.035561
0.0356365
0.0357114
0.0357855
0.0358591
0.0359321
0.0360046
0.0360767
0.0361483
0.0362196
0.0362905
0.0363612
0.0364316
0.0365018
0.0365719
0.0366418
0.0367117
0.0367815
0.0368513
0.036921
0.0369909
0.0370607
0.0371307
0.0372008
0.037271
0.0373414
0.0374119
0.0374826
0.0375535
0.0376246
0.037696
0.0377676
0.0378394
0.0379114
0.0379837
0.0380563
0.038129
0.0382021
0.0382753
0.0383488
0.0384225
0.0384965
0.0385706
0.0386449
0.0387194
0.0387941
0.038869
0.0389439
0.039019
0.0390942
0.0391694
0.0392447
0.0393201
0.0393954
0.0394708
0.0395461
0.0396213
0.0396965
0.0397715
0.0398464
0.0399211
0.0399956
0.0400699
0.0401439
0.0402177
0.0402911
0.0403642
0.040437
0.0405093
0.0405813
0.0406527
0.0407237
0.0407942
0.0408642
0.0409336
0.0410024
0.0410706
0.0411381
0.041205
0.0412713
0.0413368
0.0414016
0.0414656
0.0415289
0.0415914
0.0416531
0.0417139
0.0417739
0.0418331
0.0418914
0.0419488
0.0420053
0.0420608
0.0421155
0.0421692
0.042222
0.0422739
0.0423247
0.0423747
0.0424236
0.0424716
0.0425186
0.0425646
0.0426096
0.0426537
0.0426968
0.0427389
0.04278
0.0428202
0.0428594
0.0428976
0.0429349
0.0429712
0.0430066
0.0430411
0.0430746
0.0431072
0.0431389
0.0431697
0.0431996
0.0432287
0.0432569
0.0432842
0.0433107
0.0433364
0.0433613
0.0433854
0.0434087
0.0434313
0.0434531
0.0434742
0.0434946
0.0435143
0.0435333
0.0435516
0.0435693
0.0435863
0.0436028
0.0436186
0.0436339
0.0436486
0.0436627
0.0436763
0.0436894
0.043702
0.0437142
0.0437258
0.043737
0.0437478
0.0437582
0.0437682
0.0437778
0.043787
0.0437959
0.0438044
0.0438126
0.0438205
0.0438281
0.0438354
0.0438425
0.0438493
0.0438559
0.0438622
0.0438683
0.0438743
0.04388
0.0438856
0.0438909
0.0438962
0.0439013
0.0439062
0.043911
0.0439157
0.0439203
0.0439249
0.0439293
0.0439336
0.0439379
0.0439421
0.0439462
0.0439503
0.0439543
0.0439583
0.0439623
0.0439662
0.0439702
0.0439741
0.0439779
0.0439818
0.0439857
0.0439896
0.0439934
0.0439973
0.0440012
0.0440051
0.044009
0.0440129
0.0440168
0.0440207
0.0440247
0.0440286
0.0440326
0.0440366
0.0440406
0.0440446
0.0440487
0.0440527
0.0440568
0.0440608
0.0440649
0.0440689
0.044073
0.0440771
0.0440812
0.0440852
0.0440893
0.0440933
0.0440973
0.0441013
0.0441053
0.0441093
0.0441132
0.0441171
0.0441209
0.0441248
0.0441285
0.0441323
0.0441359
0.0441395
0.0441431
0.0441466
0.04415
0.0441533
0.0441566
0.0441598
0.0441629
0.0441659
0.0441688
0.0441716
0.0441743
0.0441769
0.0441794
0.0441818
0.0441841
0.0441862
0.0441883
0.0441902
0.044192
0.0441936
0.0441952
0.0441966
0.0441978
0.044199
0.0442
0.0442008
0.0442015
0.0442021
0.0442025
0.0442028
0.044203
-1.16595
-1.14644
-1.11893
-1.0945
-1.07811
-1.04434
-0.998196
-0.945475
-0.883728
-0.816766
-0.748697
-0.680254
-0.608297
-0.530461
-0.447163
-0.361581
-0.277892
-0.199186
-0.126651
-0.0601173
0.000681826
0.0554114
0.103198
0.143158
0.174822
0.198261
0.214008
0.222933
0.226149
0.22492
0.220547
0.21423
0.206951
0.199417
0.192068
0.185122
0.178646
0.172622
0.166999
0.161701
0.156649
0.151764
0.146985
0.14226
0.137547
0.132807
0.128011
0.123137
0.118171
0.113107
0.107946
0.102697
0.0973722
0.0919907
0.0865758
0.0811519
0.0757467
0.070389
0.0651064
0.059926
0.0548753
0.0499784
0.0452563
0.0407282
0.0364115
0.0323197
0.0284628
0.0248479
0.0214798
0.0183601
0.015488
0.0128603
0.0104718
0.00831556
0.00638322
0.0046651
0.0031507
0.00182873
0.000687504
-0.000284967
-0.00110067
-0.00177155
-0.00230926
-0.00272516
-0.00303015
-0.00323464
-0.00334848
-0.00338096
-0.00334076
-0.00323597
-0.00307405
-0.00286192
-0.0026059
-0.00231177
-0.00198481
-0.00162979
-0.00125103
-0.000852442
-0.000437509
-9.36352e-06
0.000429201
0.000875703
0.00132795
0.00178399
0.00224213
0.00270088
0.00315894
0.0036152
0.00406868
0.00451856
0.00496415
0.00540487
0.00584023
0.00626984
0.0066934
0.00711067
0.00752147
0.00792568
0.00832323
0.0087141
0.0090983
0.00947586
0.00984686
0.0102114
0.0105696
0.0109216
0.0112675
0.0116075
0.0119417
0.0122704
0.0125937
0.0129118
0.0132249
0.0135332
0.0138369
0.0141362
0.0144312
0.0147221
0.0150092
0.0152925
0.0155723
0.0158488
0.0161221
0.0163923
0.0166597
0.0169243
0.0171863
0.0174458
0.017703
0.0179579
0.0182107
0.0184615
0.0187104
0.0189575
0.0192028
0.0194465
0.0196886
0.0199292
0.0201682
0.0204059
0.0206422
0.0208772
0.0211108
0.0213432
0.0215744
0.0218043
0.022033
0.0222605
0.0224868
0.0227119
0.0229357
0.0231584
0.0233798
0.0236
0.0238189
0.0240365
0.0242528
0.0244677
0.0246813
0.0248935
0.0251042
0.0253134
0.0255212
0.0257274
0.025932
0.0261349
0.0263362
0.0265358
0.0267336
0.0269297
0.0271239
0.0273163
0.0275067
0.0276952
0.0278817
0.0280662
0.0282486
0.0284289
0.0286072
0.0287832
0.0289571
0.0291288
0.0292983
0.0294655
0.0296304
0.029793
0.0299534
0.0301114
0.0302671
0.0304204
0.0305714
0.0307201
0.0308664
0.0310104
0.031152
0.0312913
0.0314283
0.0315629
0.0316953
0.0318253
0.0319531
0.0320787
0.032202
0.0323232
0.0324422
0.0325591
0.0326738
0.0327865
0.0328972
0.0330059
0.0331126
0.0332174
0.0333204
0.0334215
0.0335209
0.0336186
0.0337145
0.0338089
0.0339017
0.0339929
0.0340827
0.0341711
0.0342581
0.0343437
0.0344282
0.0345114
0.0345935
0.0346745
0.0347545
0.0348335
0.0349115
0.0349887
0.0350651
0.0351407
0.0352156
0.0352898
0.0353634
0.0354365
0.035509
0.0355811
0.0356528
0.0357241
0.035795
0.0358657
0.0359362
0.0360064
0.0360765
0.0361464
0.0362163
0.0362861
0.0363559
0.0364257
0.0364955
0.0365653
0.0366353
0.0367053
0.0367755
0.0368459
0.0369164
0.0369871
0.0370579
0.037129
0.0372003
0.0372718
0.0373436
0.0374156
0.0374878
0.0375603
0.037633
0.037706
0.0377792
0.0378526
0.0379262
0.0380001
0.0380741
0.0381483
0.0382228
0.0382973
0.0383721
0.0384469
0.0385219
0.038597
0.0386721
0.0387473
0.0388225
0.0388978
0.038973
0.0390482
0.0391233
0.0391983
0.0392732
0.0393479
0.0394225
0.0394969
0.039571
0.0396449
0.0397186
0.0397919
0.0398648
0.0399374
0.0400096
0.0400814
0.0401527
0.0402236
0.0402939
0.0403637
0.0404329
0.0405016
0.0405697
0.0406371
0.0407038
0.0407699
0.0408353
0.0408999
0.0409638
0.041027
0.0410893
0.0411508
0.0412115
0.0412714
0.0413304
0.0413886
0.0414458
0.0415022
0.0415577
0.0416122
0.0416658
0.0417184
0.0417702
0.0418209
0.0418707
0.0419195
0.0419674
0.0420143
0.0420602
0.0421051
0.0421491
0.0421921
0.0422341
0.0422751
0.0423152
0.0423543
0.0423925
0.0424296
0.0424659
0.0425012
0.0425356
0.042569
0.0426016
0.0426332
0.042664