/*--------------------------------*- C++ -*----------------------------------*\
| =========                 |                                                 |
| \\      /  F ield         | OpenFOAM: The Open Source CFD Toolbox           |
|  \\    /   O peration     | Version:  v2012                                 |
|   \\  /    A nd           | Website:  www.openfoam.com                      |
|    \\/     M anipulation  |                                                 |
\*---------------------------------------------------------------------------*/
FoamFile
{
    version     2.0;
    format      ascii;
    class       volVectorField;
    location    "200";
    object      U_filtered;
}
// * * * * * * * * * * * * * * * * * * * * * * * * * * * * * * * * * * * * * //

dimensions      [0 1 -1 0 0 0 0];


internalField   nonuniform List<vector> 
65536
(
(0.48271 -0.486129 0)
(1.44847 -0.483677 0)
(2.41397 -0.482718 0)
(3.37589 -0.4812 0)
(4.33588 -0.47973 0)
(5.29211 -0.477429 0)
(6.24317 -0.474692 0)
(7.18863 -0.471318 0)
(8.12642 -0.467237 0)
(9.05576 -0.462531 0)
(9.97495 -0.457128 0)
(10.883 -0.451027 0)
(11.7782 -0.444007 0)
(12.6586 -0.435971 0)
(13.522 -0.426797 0)
(14.3661 -0.41651 0)
(15.1887 -0.405138 0)
(15.9877 -0.392715 0)
(16.761 -0.379212 0)
(17.5065 -0.364555 0)
(18.2218 -0.348673 0)
(18.9043 -0.33152 0)
(19.5514 -0.31311 0)
(20.1607 -0.293491 0)
(20.7297 -0.272751 0)
(21.2563 -0.250985 0)
(21.7386 -0.228313 0)
(22.1749 -0.204864 0)
(22.5636 -0.180791 0)
(22.9037 -0.156251 0)
(23.1944 -0.131422 0)
(23.4352 -0.106482 0)
(23.6261 -0.081623 0)
(23.7674 -0.0570382 0)
(23.8599 -0.0329214 0)
(23.9046 -0.00945669 0)
(23.903 0.0131841 0)
(23.8569 0.0348488 0)
(23.7684 0.0554059 0)
(23.6399 0.0747474 0)
(23.4738 0.092789 0)
(23.2728 0.109469 0)
(23.0398 0.124751 0)
(22.7774 0.138617 0)
(22.4887 0.151072 0)
(22.1763 0.162136 0)
(21.8431 0.171845 0)
(21.4916 0.180247 0)
(21.1246 0.187402 0)
(20.7444 0.193375 0)
(20.3533 0.198239 0)
(19.9535 0.202068 0)
(19.547 0.204941 0)
(19.1356 0.206936 0)
(18.7209 0.20813 0)
(18.3046 0.208598 0)
(17.888 0.208415 0)
(17.4723 0.207648 0)
(17.0587 0.206364 0)
(16.6481 0.204626 0)
(16.2413 0.202492 0)
(15.8392 0.200014 0)
(15.4422 0.197243 0)
(15.0511 0.194223 0)
(14.6662 0.190995 0)
(14.288 0.187597 0)
(13.9167 0.184062 0)
(13.5525 0.180419 0)
(13.1957 0.176695 0)
(12.8465 0.172914 0)
(12.5048 0.169095 0)
(12.1708 0.165257 0)
(11.8444 0.161415 0)
(11.5258 0.157583 0)
(11.2148 0.153772 0)
(10.9114 0.149992 0)
(10.6155 0.146251 0)
(10.327 0.142556 0)
(10.0459 0.138912 0)
(9.77206 0.135325 0)
(9.50532 0.131798 0)
(9.24557 0.128334 0)
(8.99269 0.124936 0)
(8.74654 0.121605 0)
(8.507 0.118343 0)
(8.27391 0.115151 0)
(8.04714 0.112029 0)
(7.82655 0.108978 0)
(7.61199 0.105997 0)
(7.40334 0.103087 0)
(7.20043 0.100246 0)
(7.00314 0.0974758 0)
(6.81133 0.0947741 0)
(6.62485 0.0921406 0)
(6.44358 0.0895745 0)
(6.26737 0.0870746 0)
(6.0961 0.0846402 0)
(5.92964 0.08227 0)
(5.76785 0.0799631 0)
(5.61062 0.0777181 0)
(5.45782 0.075534 0)
(5.30933 0.0734094 0)
(5.16503 0.0713433 0)
(5.02481 0.0693342 0)
(4.88854 0.067381 0)
(4.75613 0.0654824 0)
(4.62747 0.0636371 0)
(4.50244 0.0618439 0)
(4.38095 0.0601014 0)
(4.26289 0.0584084 0)
(4.14817 0.0567637 0)
(4.03669 0.055166 0)
(3.92835 0.0536141 0)
(3.82308 0.0521068 0)
(3.72078 0.0506429 0)
(3.62135 0.0492212 0)
(3.52473 0.0478406 0)
(3.43083 0.0465 0)
(3.33957 0.0451981 0)
(3.25087 0.0439341 0)
(3.16467 0.0427067 0)
(3.08087 0.0415149 0)
(2.99943 0.0403577 0)
(2.92026 0.0392342 0)
(2.8433 0.0381432 0)
(2.76849 0.037084 0)
(2.69577 0.0360555 0)
(2.62507 0.0350569 0)
(2.55633 0.0340873 0)
(2.4895 0.0331458 0)
(2.42453 0.0322316 0)
(2.36135 0.0313439 0)
(2.29991 0.0304819 0)
(2.24018 0.0296447 0)
(2.18208 0.0288318 0)
(2.12559 0.0280424 0)
(2.07065 0.0272757 0)
(2.01721 0.026531 0)
(1.96524 0.0258078 0)
(1.91469 0.0251054 0)
(1.86552 0.0244231 0)
(1.81769 0.0237603 0)
(1.77116 0.0231165 0)
(1.72589 0.0224911 0)
(1.68186 0.0218835 0)
(1.63901 0.0212932 0)
(1.59733 0.0207197 0)
(1.55677 0.0201625 0)
(1.5173 0.0196211 0)
(1.4789 0.019095 0)
(1.44153 0.0185837 0)
(1.40516 0.0180869 0)
(1.36977 0.0176041 0)
(1.33532 0.0171348 0)
(1.3018 0.0166787 0)
(1.26917 0.0162354 0)
(1.2374 0.0158045 0)
(1.20649 0.0153856 0)
(1.17639 0.0149784 0)
(1.14709 0.0145825 0)
(1.11857 0.0141977 0)
(1.0908 0.0138235 0)
(1.06377 0.0134596 0)
(1.03744 0.0131059 0)
(1.01181 0.0127619 0)
(0.98686 0.0124273 0)
(0.96256 0.012102 0)
(0.938897 0.0117856 0)
(0.915854 0.0114779 0)
(0.893414 0.0111786 0)
(0.871559 0.0108875 0)
(0.850275 0.0106044 0)
(0.829546 0.0103289 0)
(0.809356 0.010061 0)
(0.78969 0.00980032 0)
(0.770535 0.00954673 0)
(0.751877 0.00930001 0)
(0.733702 0.00905996 0)
(0.715998 0.00882639 0)
(0.69875 0.00859913 0)
(0.681948 0.00837798 0)
(0.66558 0.00816278 0)
(0.649633 0.00795336 0)
(0.634096 0.00774956 0)
(0.618959 0.00755121 0)
(0.60421 0.00735817 0)
(0.58984 0.00717028 0)
(0.575839 0.00698741 0)
(0.562196 0.0068094 0)
(0.548902 0.00663614 0)
(0.535948 0.00646747 0)
(0.523325 0.00630328 0)
(0.511024 0.00614344 0)
(0.499037 0.00598783 0)
(0.487355 0.00583634 0)
(0.475972 0.00568884 0)
(0.464877 0.00554523 0)
(0.454065 0.00540541 0)
(0.443528 0.00526926 0)
(0.433259 0.00513669 0)
(0.42325 0.0050076 0)
(0.413495 0.0048819 0)
(0.403987 0.00475948 0)
(0.394721 0.00464027 0)
(0.385689 0.00452417 0)
(0.376885 0.0044111 0)
(0.368305 0.00430097 0)
(0.359941 0.00419372 0)
(0.351789 0.00408925 0)
(0.343842 0.00398749 0)
(0.336097 0.00388838 0)
(0.328547 0.00379183 0)
(0.321187 0.00369779 0)
(0.314013 0.00360617 0)
(0.30702 0.00351693 0)
(0.300202 0.00342998 0)
(0.293557 0.00334528 0)
(0.287079 0.00326276 0)
(0.280764 0.00318236 0)
(0.274607 0.00310402 0)
(0.268606 0.0030277 0)
(0.262755 0.00295333 0)
(0.257051 0.00288087 0)
(0.251491 0.00281026 0)
(0.24607 0.00274146 0)
(0.240784 0.00267441 0)
(0.235632 0.00260907 0)
(0.230608 0.0025454 0)
(0.22571 0.00248334 0)
(0.220935 0.00242287 0)
(0.216279 0.00236393 0)
(0.21174 0.00230648 0)
(0.207314 0.00225049 0)
(0.202998 0.00219592 0)
(0.19879 0.00214273 0)
(0.194687 0.00209088 0)
(0.190686 0.00204034 0)
(0.186784 0.00199107 0)
(0.18298 0.00194304 0)
(0.17927 0.00189622 0)
(0.175651 0.00185058 0)
(0.172123 0.00180608 0)
(0.168682 0.0017627 0)
(0.165326 0.00172041 0)
(0.162052 0.00167917 0)
(0.15886 0.00163897 0)
(0.155746 0.00159977 0)
(0.152709 0.00156154 0)
(0.149746 0.00152427 0)
(0.146855 0.00148793 0)
(0.144036 0.00145249 0)
(0.141285 0.00141793 0)
(0.138601 0.00138423 0)
(0.135983 0.00135137 0)
(0.133428 0.00131932 0)
(0.130935 0.00128807 0)
(0.128503 0.00125758 0)
(0.126129 0.00122786 0)
(0.123812 0.00119886 0)
(0.121551 0.00117059 0)
(0.119343 0.00114301 0)
(0.117189 0.00111611 0)
(0.115086 0.00108987 0)
(0.113033 0.00106428 0)
(0.111028 0.00103932 0)
(0.109071 0.00101498 0)
(0.10716 0.000991229 0)
(0.105294 0.000968066 0)
(0.103471 0.000945473 0)
(0.101691 0.000923435 0)
(0.0999518 0.000901939 0)
(0.0982532 0.000880972 0)
(0.0965937 0.000860519 0)
(0.0949723 0.00084057 0)
(0.093388 0.000821111 0)
(0.0918398 0.000802131 0)
(0.0903267 0.000783618 0)
(0.0888478 0.00076556 0)
(0.0874022 0.000747948 0)
(0.0859889 0.000730769 0)
(0.0846072 0.000714014 0)
(0.0832562 0.000697673 0)
(0.081935 0.000681736 0)
(0.0806429 0.000666194 0)
(0.0793791 0.000651036 0)
(0.0781428 0.000636254 0)
(0.0769334 0.00062184 0)
(0.07575 0.000607784 0)
(0.0745921 0.000594079 0)
(0.0734589 0.000580717 0)
(0.0723498 0.000567688 0)
(0.0712642 0.000554987 0)
(0.0702014 0.000542605 0)
(0.0691609 0.000530535 0)
(0.068142 0.000518771 0)
(0.0671443 0.000507304 0)
(0.0661671 0.00049613 0)
(0.06521 0.00048524 0)
(0.0642725 0.000474628 0)
(0.0633539 0.00046429 0)
(0.0624539 0.000454217 0)
(0.061572 0.000444405 0)
(0.0607078 0.000434848 0)
(0.0598607 0.00042554 0)
(0.0590305 0.000416475 0)
(0.0582166 0.000407649 0)
(0.0574186 0.000399056 0)
(0.0566362 0.000390691 0)
(0.0558691 0.000382549 0)
(0.0551168 0.000374625 0)
(0.0543789 0.000366914 0)
(0.0536553 0.000359412 0)
(0.0529454 0.000352114 0)
(0.0522491 0.000345016 0)
(0.051566 0.000338112 0)
(0.0508957 0.0003314 0)
(0.0502381 0.000324874 0)
(0.0495928 0.000318531 0)
(0.0489596 0.000312366 0)
(0.0483382 0.000306376 0)
(0.0477283 0.000300556 0)
(0.0471297 0.000294903 0)
(0.0465423 0.000289412 0)
(0.0459656 0.000284081 0)
(0.0453996 0.000278905 0)
(0.0448439 0.000273881 0)
(0.0442985 0.000269005 0)
(0.0437631 0.000264274 0)
(0.0432374 0.000259684 0)
(0.0427214 0.000255232 0)
(0.0422148 0.000250915 0)
(0.0417174 0.000246729 0)
(0.0412291 0.00024267 0)
(0.0407498 0.000238737 0)
(0.0402791 0.000234924 0)
(0.0398171 0.00023123 0)
(0.0393635 0.000227651 0)
(0.0389181 0.000224184 0)
(0.0384809 0.000220826 0)
(0.0380517 0.000217574 0)
(0.0376304 0.000214425 0)
(0.0372167 0.000211376 0)
(0.0368107 0.000208425 0)
(0.0364121 0.000205567 0)
(0.0360208 0.0002028 0)
(0.0356367 0.000200123 0)
(0.0352598 0.00019753 0)
(0.0348897 0.000195021 0)
(0.0345265 0.000192592 0)
(0.0341701 0.00019024 0)
(0.0338202 0.000187963 0)
(0.0334769 0.000185758 0)
(0.0331399 0.000183622 0)
(0.0328092 0.000181554 0)
(0.0324847 0.000179549 0)
(0.0321662 0.000177606 0)
(0.0318537 0.000175723 0)
(0.031547 0.000173896 0)
(0.0312461 0.000172124 0)
(0.0309508 0.000170403 0)
(0.030661 0.000168732 0)
(0.0303766 0.000167108 0)
(0.0300975 0.000165529 0)
(0.0298237 0.000163992 0)
(0.029555 0.000162496 0)
(0.0292912 0.000161037 0)
(0.0290324 0.000159615 0)
(0.0287784 0.000158226 0)
(0.028529 0.000156868 0)
(0.0282843 0.00015554 0)
(0.028044 0.000154239 0)
(0.0278081 0.000152964 0)
(0.0275765 0.000151712 0)
(0.0273491 0.000150482 0)
(0.0271257 0.000149271 0)
(0.0269063 0.000148078 0)
(0.0266908 0.0001469 0)
(0.026479 0.000145737 0)
(0.0262708 0.000144585 0)
(0.0260663 0.000143445 0)
(0.0258651 0.000142313 0)
(0.0256673 0.000141188 0)
(0.0254727 0.00014007 0)
(0.0252813 0.000138955 0)
(0.0250929 0.000137843 0)
(0.0249074 0.000136732 0)
(0.0247247 0.000135621 0)
(0.0245447 0.000134508 0)
(0.0243674 0.000133392 0)
(0.0241925 0.000132272 0)
(0.0240201 0.000131147 0)
(0.0238499 0.000130015 0)
(0.0236819 0.000128875 0)
(0.0235161 0.000127725 0)
(0.0233522 0.000126566 0)
(0.0231903 0.000125396 0)
(0.0230301 0.000124214 0)
(0.0228716 0.000123019 0)
(0.0227147 0.000121809 0)
(0.0225593 0.000120585 0)
(0.0224054 0.000119346 0)
(0.0222527 0.00011809 0)
(0.0221012 0.000116817 0)
(0.0219509 0.000115527 0)
(0.0218016 0.000114218 0)
(0.0216532 0.00011289 0)
(0.0215056 0.000111543 0)
(0.0213588 0.000110176 0)
(0.0212127 0.000108788 0)
(0.0210671 0.00010738 0)
(0.0209221 0.000105951 0)
(0.0207774 0.0001045 0)
(0.020633 0.000103027 0)
(0.0204889 0.000101533 0)
(0.0203449 0.000100016 0)
(0.020201 9.8477e-05 0)
(0.0200571 9.69154e-05 0)
(0.0199131 9.53314e-05 0)
(0.0197689 9.37248e-05 0)
(0.0196245 9.20957e-05 0)
(0.0194798 9.04443e-05 0)
(0.0193347 8.87706e-05 0)
(0.0191892 8.70748e-05 0)
(0.0190431 8.5357e-05 0)
(0.0188965 8.36176e-05 0)
(0.0187491 8.18567e-05 0)
(0.0186011 8.00747e-05 0)
(0.0184522 7.8272e-05 0)
(0.0183025 7.64488e-05 0)
(0.0181519 7.46057e-05 0)
(0.0180004 7.2743e-05 0)
(0.0178478 7.08614e-05 0)
(0.0176941 6.89613e-05 0)
(0.0175392 6.70433e-05 0)
(0.0173832 6.5108e-05 0)
(0.0172259 6.31561e-05 0)
(0.0170673 6.11883e-05 0)
(0.0169074 5.92053e-05 0)
(0.016746 5.72078e-05 0)
(0.0165832 5.51965e-05 0)
(0.0164189 5.31723e-05 0)
(0.0162531 5.11359e-05 0)
(0.0160857 4.90885e-05 0)
(0.0159167 4.70308e-05 0)
(0.015746 4.49638e-05 0)
(0.0155737 4.28884e-05 0)
(0.0153996 4.08057e-05 0)
(0.0152237 3.87167e-05 0)
(0.0150461 3.66224e-05 0)
(0.0148666 3.45239e-05 0)
(0.0146852 3.24223e-05 0)
(0.014502 3.03188e-05 0)
(0.0143169 2.82146e-05 0)
(0.0141298 2.61107e-05 0)
(0.0139407 2.40083e-05 0)
(0.0137497 2.19085e-05 0)
(0.0135567 1.98125e-05 0)
(0.0133616 1.77218e-05 0)
(0.0131646 1.56375e-05 0)
(0.0129654 1.3561e-05 0)
(0.0127643 1.14935e-05 0)
(0.012561 9.43641e-06 0)
(0.0123557 7.39088e-06 0)
(0.0121483 5.35831e-06 0)
(0.0119388 3.33997e-06 0)
(0.0117272 1.33725e-06 0)
(0.0115135 -6.48581e-07 0)
(0.0112978 -2.61612e-06 0)
(0.0110799 -4.5641e-06 0)
(0.01086 -6.4911e-06 0)
(0.010638 -8.39588e-06 0)
(0.010414 -1.0277e-05 0)
(0.0101879 -1.21332e-05 0)
(0.00995975 -1.39631e-05 0)
(0.00972962 -1.57655e-05 0)
(0.00949748 -1.75389e-05 0)
(0.00926339 -1.92821e-05 0)
(0.00902732 -2.09938e-05 0)
(0.00878935 -2.26729e-05 0)
(0.00854945 -2.43177e-05 0)
(0.00830773 -2.59275e-05 0)
(0.00806412 -2.75006e-05 0)
(0.00781876 -2.90361e-05 0)
(0.00757158 -3.05326e-05 0)
(0.00732272 -3.19893e-05 0)
(0.00707213 -3.34045e-05 0)
(0.00681993 -3.47777e-05 0)
(0.00656608 -3.61072e-05 0)
(0.00631073 -3.73926e-05 0)
(0.00605382 -3.86322e-05 0)
(0.00579549 -3.98257e-05 0)
(0.00553571 -4.09715e-05 0)
(0.00527462 -4.20692e-05 0)
(0.00501218 -4.31174e-05 0)
(0.00474855 -4.41158e-05 0)
(0.00448368 -4.50631e-05 0)
(0.00421773 -4.59589e-05 0)
(0.00395068 -4.68021e-05 0)
(0.00368265 -4.75923e-05 0)
(0.00341366 -4.83285e-05 0)
(0.00314382 -4.90108e-05 0)
(0.00287313 -4.96366e-05 0)
(0.00260175 -5.02095e-05 0)
(0.00232964 -5.07203e-05 0)
(0.00205701 -5.11838e-05 0)
(0.00178373 -5.15697e-05 0)
(0.00151014 -5.19278e-05 0)
(0.001236 -5.21621e-05 0)
(0.000961709 -5.24263e-05 0)
(0.000687117 -5.24196e-05 0)
(0.00041226 -5.25863e-05 0)
(0.000137934 -5.19058e-05 0)
(0.483639 -1.45765 0)
(1.44998 -1.45408 0)
(2.41513 -1.45109 0)
(3.37705 -1.44705 0)
(4.33726 -1.44274 0)
(5.29415 -1.43596 0)
(6.24568 -1.42777 0)
(7.19189 -1.41769 0)
(8.13044 -1.40542 0)
(9.06052 -1.39128 0)
(9.98053 -1.37509 0)
(10.8896 -1.35686 0)
(11.7861 -1.33586 0)
(12.6681 -1.31175 0)
(13.5332 -1.28416 0)
(14.3789 -1.25319 0)
(15.2031 -1.21896 0)
(16.0036 -1.18161 0)
(16.7787 -1.14105 0)
(17.526 -1.09702 0)
(18.2432 -1.04928 0)
(18.9276 -0.997681 0)
(19.5767 -0.942266 0)
(20.1878 -0.883186 0)
(20.7584 -0.820717 0)
(21.2866 -0.755148 0)
(21.7701 -0.686844 0)
(22.2073 -0.616192 0)
(22.5967 -0.543652 0)
(22.9372 -0.469704 0)
(23.228 -0.394877 0)
(23.4685 -0.319715 0)
(23.6588 -0.244799 0)
(23.7992 -0.170711 0)
(23.8904 -0.0980432 0)
(23.9335 -0.0273527 0)
(23.9301 0.0408395 0)
(23.8819 0.106075 0)
(23.7911 0.167957 0)
(23.6602 0.226161 0)
(23.4915 0.280431 0)
(23.288 0.330589 0)
(23.0523 0.376521 0)
(22.7874 0.418181 0)
(22.4961 0.45558 0)
(22.1813 0.488787 0)
(21.8457 0.517911 0)
(21.4921 0.543101 0)
(21.123 0.564534 0)
(20.7408 0.582414 0)
(20.348 0.596958 0)
(19.9465 0.608396 0)
(19.5385 0.616961 0)
(19.1257 0.622889 0)
(18.7098 0.626413 0)
(18.2924 0.627762 0)
(17.8748 0.627153 0)
(17.4582 0.624797 0)
(17.0438 0.620892 0)
(16.6324 0.615624 0)
(16.2251 0.609168 0)
(15.8224 0.601683 0)
(15.425 0.593318 0)
(15.0334 0.584208 0)
(14.6482 0.574476 0)
(14.2696 0.564233 0)
(13.898 0.553579 0)
(13.5337 0.542603 0)
(13.1767 0.531384 0)
(12.8273 0.519992 0)
(12.4855 0.50849 0)
(12.1514 0.496929 0)
(11.825 0.485358 0)
(11.5064 0.473816 0)
(11.1954 0.462339 0)
(10.892 0.450954 0)
(10.5962 0.439688 0)
(10.3078 0.42856 0)
(10.0269 0.417589 0)
(9.75314 0.406788 0)
(9.48657 0.396169 0)
(9.22701 0.385741 0)
(8.97434 0.375511 0)
(8.72842 0.365485 0)
(8.48911 0.355667 0)
(8.25628 0.346059 0)
(8.02978 0.336664 0)
(7.80946 0.327482 0)
(7.5952 0.318514 0)
(7.38684 0.309758 0)
(7.18424 0.301214 0)
(6.98726 0.29288 0)
(6.79576 0.284755 0)
(6.6096 0.276835 0)
(6.42865 0.269118 0)
(6.25276 0.261601 0)
(6.08181 0.254281 0)
(5.91567 0.247156 0)
(5.75421 0.24022 0)
(5.5973 0.233472 0)
(5.44481 0.226907 0)
(5.29663 0.220521 0)
(5.15264 0.214311 0)
(5.01272 0.208273 0)
(4.87676 0.202404 0)
(4.74465 0.196698 0)
(4.61627 0.191153 0)
(4.49153 0.185765 0)
(4.37032 0.180529 0)
(4.25253 0.175443 0)
(4.13808 0.170501 0)
(4.02687 0.165701 0)
(3.91879 0.161039 0)
(3.81377 0.156511 0)
(3.71171 0.152113 0)
(3.61253 0.147842 0)
(3.51615 0.143695 0)
(3.42248 0.139667 0)
(3.33144 0.135757 0)
(3.24296 0.13196 0)
(3.15697 0.128273 0)
(3.07338 0.124693 0)
(2.99214 0.121217 0)
(2.91317 0.117842 0)
(2.83641 0.114566 0)
(2.76178 0.111384 0)
(2.68924 0.108295 0)
(2.61872 0.105295 0)
(2.55015 0.102383 0)
(2.48349 0.0995553 0)
(2.41868 0.0968094 0)
(2.35566 0.0941431 0)
(2.29438 0.091554 0)
(2.23479 0.0890397 0)
(2.17684 0.0865981 0)
(2.12049 0.084227 0)
(2.06569 0.0819242 0)
(2.01238 0.0796877 0)
(1.96054 0.0775155 0)
(1.91012 0.0754057 0)
(1.86107 0.0733565 0)
(1.81336 0.0713659 0)
(1.76695 0.0694323 0)
(1.7218 0.0675538 0)
(1.67787 0.065729 0)
(1.63513 0.0639561 0)
(1.59355 0.0622336 0)
(1.5531 0.0605601 0)
(1.51373 0.0589339 0)
(1.47542 0.0573538 0)
(1.43814 0.0558183 0)
(1.40187 0.0543261 0)
(1.36656 0.0528759 0)
(1.3322 0.0514665 0)
(1.29876 0.0500966 0)
(1.26621 0.0487651 0)
(1.23452 0.0474709 0)
(1.20368 0.0462128 0)
(1.17366 0.0449898 0)
(1.14444 0.0438008 0)
(1.11598 0.0426448 0)
(1.08828 0.0415209 0)
(1.06132 0.0404282 0)
(1.03506 0.0393656 0)
(1.00949 0.0383324 0)
(0.984597 0.0373276 0)
(0.960357 0.0363505 0)
(0.936752 0.0354003 0)
(0.913765 0.034476 0)
(0.89138 0.0335771 0)
(0.869579 0.0327028 0)
(0.848347 0.0318523 0)
(0.827668 0.0310251 0)
(0.807527 0.0302203 0)
(0.787909 0.0294374 0)
(0.768801 0.0286757 0)
(0.750188 0.0279346 0)
(0.732057 0.0272136 0)
(0.714395 0.0265121 0)
(0.697189 0.0258295 0)
(0.680428 0.0251653 0)
(0.664099 0.0245189 0)
(0.64819 0.0238899 0)
(0.632691 0.0232778 0)
(0.61759 0.022682 0)
(0.602877 0.0221022 0)
(0.588541 0.0215379 0)
(0.574573 0.0209886 0)
(0.560963 0.0204539 0)
(0.547701 0.0199335 0)
(0.534778 0.0194269 0)
(0.522185 0.0189337 0)
(0.509914 0.0184536 0)
(0.497955 0.0179862 0)
(0.486302 0.0175312 0)
(0.474945 0.0170882 0)
(0.463877 0.0166568 0)
(0.453091 0.0162368 0)
(0.442578 0.0158279 0)
(0.432333 0.0154297 0)
(0.422348 0.015042 0)
(0.412616 0.0146644 0)
(0.403131 0.0142967 0)
(0.393886 0.0139386 0)
(0.384876 0.0135899 0)
(0.376093 0.0132502 0)
(0.367533 0.0129194 0)
(0.359189 0.0125973 0)
(0.351056 0.0122835 0)
(0.343128 0.0119778 0)
(0.335401 0.0116801 0)
(0.327868 0.0113901 0)
(0.320526 0.0111076 0)
(0.313369 0.0108324 0)
(0.306392 0.0105643 0)
(0.299591 0.0103032 0)
(0.292961 0.0100487 0)
(0.286498 0.00980086 0)
(0.280197 0.00955935 0)
(0.274055 0.00932405 0)
(0.268068 0.00909478 0)
(0.262231 0.0088714 0)
(0.25654 0.00865373 0)
(0.250993 0.00844163 0)
(0.245584 0.00823495 0)
(0.240311 0.00803355 0)
(0.23517 0.00783728 0)
(0.230159 0.00764601 0)
(0.225272 0.00745961 0)
(0.220508 0.00727794 0)
(0.215863 0.00710089 0)
(0.211334 0.00692833 0)
(0.206918 0.00676014 0)
(0.202612 0.00659621 0)
(0.198414 0.00643642 0)
(0.19432 0.00628067 0)
(0.190328 0.00612885 0)
(0.186436 0.00598085 0)
(0.18264 0.00583658 0)
(0.178939 0.00569594 0)
(0.175329 0.00555883 0)
(0.171808 0.00542517 0)
(0.168375 0.00529485 0)
(0.165027 0.0051678 0)
(0.161761 0.00504393 0)
(0.158576 0.00492315 0)
(0.155469 0.0048054 0)
(0.152438 0.00469058 0)
(0.149482 0.00457862 0)
(0.146599 0.00446945 0)
(0.143785 0.00436299 0)
(0.141041 0.00425919 0)
(0.138363 0.00415796 0)
(0.135751 0.00405924 0)
(0.133202 0.00396297 0)
(0.130715 0.00386908 0)
(0.128288 0.00377752 0)
(0.125919 0.00368822 0)
(0.123607 0.00360113 0)
(0.121351 0.0035162 0)
(0.119149 0.00343335 0)
(0.116999 0.00335255 0)
(0.114901 0.00327375 0)
(0.112853 0.00319688 0)
(0.110853 0.00312191 0)
(0.1089 0.00304879 0)
(0.106993 0.00297746 0)
(0.105131 0.00290789 0)
(0.103312 0.00284003 0)
(0.101536 0.00277384 0)
(0.0998007 0.00270927 0)
(0.0981058 0.0026463 0)
(0.09645 0.00258487 0)
(0.0948322 0.00252496 0)
(0.0932513 0.00246651 0)
(0.0917065 0.00240951 0)
(0.0901967 0.00235391 0)
(0.0887211 0.00229968 0)
(0.0872786 0.00224678 0)
(0.0858684 0.00219519 0)
(0.0844897 0.00214487 0)
(0.0831416 0.0020958 0)
(0.0818233 0.00204794 0)
(0.080534 0.00200126 0)
(0.0792729 0.00195575 0)
(0.0780392 0.00191136 0)
(0.0768323 0.00186807 0)
(0.0756515 0.00182586 0)
(0.074496 0.00178471 0)
(0.0733652 0.00174459 0)
(0.0722585 0.00170546 0)
(0.0711751 0.00166733 0)
(0.0701145 0.00163015 0)
(0.0690762 0.00159391 0)
(0.0680594 0.00155858 0)
(0.0670638 0.00152415 0)
(0.0660886 0.0014906 0)
(0.0651335 0.0014579 0)
(0.0641978 0.00142605 0)
(0.0632811 0.001395 0)
(0.062383 0.00136476 0)
(0.0615029 0.0013353 0)
(0.0606404 0.00130661 0)
(0.059795 0.00127867 0)
(0.0589664 0.00125145 0)
(0.0581541 0.00122495 0)
(0.0573577 0.00119916 0)
(0.0565769 0.00117404 0)
(0.0558112 0.0011496 0)
(0.0550604 0.00112581 0)
(0.054324 0.00110266 0)
(0.0536017 0.00108014 0)
(0.0528932 0.00105823 0)
(0.0521982 0.00103692 0)
(0.0515164 0.0010162 0)
(0.0508474 0.000996045 0)
(0.050191 0.000976454 0)
(0.0495469 0.000957411 0)
(0.0489149 0.000938904 0)
(0.0482946 0.00092092 0)
(0.0476859 0.000903448 0)
(0.0470884 0.000886476 0)
(0.046502 0.000869993 0)
(0.0459264 0.000853988 0)
(0.0453613 0.000838449 0)
(0.0448067 0.000823365 0)
(0.0442622 0.000808727 0)
(0.0437277 0.000794522 0)
(0.043203 0.000780742 0)
(0.0426879 0.000767375 0)
(0.0421822 0.000754412 0)
(0.0416857 0.000741843 0)
(0.0411982 0.000729657 0)
(0.0407196 0.000717845 0)
(0.0402498 0.000706397 0)
(0.0397885 0.000695304 0)
(0.0393357 0.000684556 0)
(0.0388911 0.000674145 0)
(0.0384546 0.00066406 0)
(0.0380261 0.000654293 0)
(0.0376054 0.000644836 0)
(0.0371924 0.000635678 0)
(0.036787 0.000626811 0)
(0.036389 0.000618227 0)
(0.0359984 0.000609916 0)
(0.0356149 0.000601872 0)
(0.0352385 0.000594084 0)
(0.034869 0.000586544 0)
(0.0345064 0.000579245 0)
(0.0341505 0.000572179 0)
(0.0338011 0.000565336 0)
(0.0334583 0.00055871 0)
(0.0331218 0.000552292 0)
(0.0327916 0.000546074 0)
(0.0324675 0.000540049 0)
(0.0321495 0.00053421 0)
(0.0318374 0.000528548 0)
(0.0315312 0.000523057 0)
(0.0312307 0.000517728 0)
(0.0309357 0.000512555 0)
(0.0306463 0.000507531 0)
(0.0303623 0.000502648 0)
(0.0300837 0.000497899 0)
(0.0298102 0.000493278 0)
(0.0295418 0.000488778 0)
(0.0292784 0.000484392 0)
(0.0290199 0.000480113 0)
(0.0287661 0.000475936 0)
(0.0285171 0.000471853 0)
(0.0282726 0.000467859 0)
(0.0280326 0.000463947 0)
(0.027797 0.000460112 0)
(0.0275657 0.000456347 0)
(0.0273385 0.000452646 0)
(0.0271154 0.000449004 0)
(0.0268962 0.000445415 0)
(0.0266809 0.000441874 0)
(0.0264693 0.000438375 0)
(0.0262614 0.000434914 0)
(0.026057 0.000431484 0)
(0.0258561 0.000428081 0)
(0.0256584 0.0004247 0)
(0.025464 0.000421337 0)
(0.0252728 0.000417986 0)
(0.0250845 0.000414644 0)
(0.0248992 0.000411305 0)
(0.0247166 0.000407966 0)
(0.0245368 0.000404623 0)
(0.0243596 0.000401271 0)
(0.0241849 0.000397906 0)
(0.0240125 0.000394526 0)
(0.0238425 0.000391125 0)
(0.0236747 0.000387702 0)
(0.0235089 0.000384251 0)
(0.0233451 0.000380771 0)
(0.0231833 0.000377259 0)
(0.0230232 0.00037371 0)
(0.0228648 0.000370123 0)
(0.022708 0.000366494 0)
(0.0225527 0.000362822 0)
(0.0223988 0.000359103 0)
(0.0222462 0.000355336 0)
(0.0220948 0.000351518 0)
(0.0219445 0.000347647 0)
(0.0217953 0.000343722 0)
(0.0216469 0.000339741 0)
(0.0214994 0.000335701 0)
(0.0213527 0.000331602 0)
(0.0212066 0.000327443 0)
(0.0210611 0.000323221 0)
(0.020916 0.000318937 0)
(0.0207714 0.000314588 0)
(0.0206271 0.000310175 0)
(0.020483 0.000305696 0)
(0.020339 0.000301151 0)
(0.0201951 0.00029654 0)
(0.0200513 0.000291862 0)
(0.0199073 0.000287116 0)
(0.0197631 0.000282304 0)
(0.0196188 0.000277424 0)
(0.0194741 0.000272477 0)
(0.019329 0.000267465 0)
(0.0191835 0.000262386 0)
(0.0190374 0.000257241 0)
(0.0188908 0.000252032 0)
(0.0187435 0.000246759 0)
(0.0185954 0.000241423 0)
(0.0184466 0.000236025 0)
(0.0182969 0.000230566 0)
(0.0181463 0.000225047 0)
(0.0179947 0.00021947 0)
(0.0178422 0.000213837 0)
(0.0176885 0.000208148 0)
(0.0175336 0.000202406 0)
(0.0173776 0.000196612 0)
(0.0172203 0.000190769 0)
(0.0170617 0.000184878 0)
(0.0169018 0.000178942 0)
(0.0167405 0.000172962 0)
(0.0165777 0.000166942 0)
(0.0164134 0.000160883 0)
(0.0162476 0.000154788 0)
(0.0160803 0.00014866 0)
(0.0159113 0.000142501 0)
(0.0157406 0.000136314 0)
(0.0155683 0.000130103 0)
(0.0153942 0.000123869 0)
(0.0152184 0.000117617 0)
(0.0150407 0.000111349 0)
(0.0148613 0.000105068 0)
(0.0146799 9.87788e-05 0)
(0.0144967 9.24834e-05 0)
(0.0143116 8.61858e-05 0)
(0.0141246 7.98895e-05 0)
(0.0139356 7.35976e-05 0)
(0.0137446 6.73137e-05 0)
(0.0135516 6.10415e-05 0)
(0.0133566 5.47848e-05 0)
(0.0131595 4.85476e-05 0)
(0.0129605 4.23335e-05 0)
(0.0127593 3.61465e-05 0)
(0.0125561 2.99903e-05 0)
(0.0123508 2.38689e-05 0)
(0.0121435 1.77863e-05 0)
(0.011934 1.17462e-05 0)
(0.0117225 5.75283e-06 0)
(0.0115089 -1.90003e-07 0)
(0.0112932 -6.07814e-06 0)
(0.0110754 -1.19078e-05 0)
(0.0108555 -1.76747e-05 0)
(0.0106336 -2.33751e-05 0)
(0.0104096 -2.90048e-05 0)
(0.0101836 -3.456e-05 0)
(0.00995556 -4.00365e-05 0)
(0.00972552 -4.54307e-05 0)
(0.00949344 -5.07382e-05 0)
(0.00925943 -5.59557e-05 0)
(0.00902344 -6.10788e-05 0)
(0.00878556 -6.61042e-05 0)
(0.00854575 -7.10275e-05 0)
(0.00830411 -7.58458e-05 0)
(0.00806059 -8.05545e-05 0)
(0.00781532 -8.5151e-05 0)
(0.00756824 -8.96307e-05 0)
(0.00731947 -9.39913e-05 0)
(0.00706897 -9.82281e-05 0)
(0.00681688 -0.000102339 0)
(0.00656313 -0.00010632 0)
(0.00630788 -0.000110169 0)
(0.00605108 -0.00011388 0)
(0.00579286 -0.000117454 0)
(0.00553319 -0.000120886 0)
(0.00527221 -0.000124174 0)
(0.00500988 -0.000127314 0)
(0.00474636 -0.000130305 0)
(0.00448161 -0.000133143 0)
(0.00421577 -0.000135828 0)
(0.00394884 -0.000138355 0)
(0.00368093 -0.000140725 0)
(0.00341206 -0.000142933 0)
(0.00314234 -0.000144982 0)
(0.00287178 -0.000146863 0)
(0.00260053 -0.000148588 0)
(0.00232854 -0.000150135 0)
(0.00205604 -0.00015154 0)
(0.00178288 -0.000152744 0)
(0.00150946 -0.000153854 0)
(0.0012354 -0.000154699 0)
(0.000961415 -0.000155595 0)
(0.000686851 -0.00015605 0)
(0.000412845 -0.000156925 0)
(0.000138818 -0.00015654 0)
(0.484815 -2.43415 0)
(1.45278 -2.4295 0)
(2.4188 -2.42405 0)
(3.3809 -2.41747 0)
(4.34246 -2.41089 0)
(5.30141 -2.39972 0)
(6.25473 -2.38611 0)
(7.20312 -2.3695 0)
(8.1439 -2.34901 0)
(9.07606 -2.32543 0)
(9.99826 -2.29865 0)
(10.91 -2.26865 0)
(11.8099 -2.23403 0)
(12.6958 -2.19404 0)
(13.5649 -2.148 0)
(14.4145 -2.09618 0)
(15.2424 -2.03896 0)
(16.0466 -1.97667 0)
(16.8255 -1.90913 0)
(17.577 -1.83583 0)
(18.2987 -1.75624 0)
(18.9878 -1.67004 0)
(19.6413 -1.57733 0)
(20.2566 -1.47841 0)
(20.8311 -1.37376 0)
(21.3626 -1.26388 0)
(21.8491 -1.14938 0)
(22.2887 -1.03091 0)
(22.6799 -0.909238 0)
(23.0216 -0.785182 0)
(23.3128 -0.659633 0)
(23.5531 -0.533503 0)
(23.7424 -0.407775 0)
(23.8811 -0.283439 0)
(23.9698 -0.161501 0)
(24.0098 -0.0429123 0)
(24.0026 0.0714429 0)
(23.9502 0.180788 0)
(23.8547 0.284457 0)
(23.7187 0.381904 0)
(23.5448 0.472708 0)
(23.3358 0.556569 0)
(23.0946 0.633304 0)
(22.8242 0.702842 0)
(22.5275 0.765215 0)
(22.2074 0.820538 0)
(21.8667 0.869008 0)
(21.5082 0.91088 0)
(21.1345 0.94646 0)
(20.7481 0.976092 0)
(20.3512 1.00015 0)
(19.9461 1.01901 0)
(19.5346 1.03309 0)
(19.1187 1.04276 0)
(18.7 1.04844 0)
(18.2801 1.05049 0)
(17.8602 1.04928 0)
(17.4416 1.04517 0)
(17.0253 1.03849 0)
(16.6124 1.02955 0)
(16.2036 1.01863 0)
(15.7997 1.00601 0)
(15.4012 0.991925 0)
(15.0088 0.976608 0)
(14.6227 0.960262 0)
(14.2435 0.943069 0)
(13.8714 0.925196 0)
(13.5065 0.906791 0)
(13.1492 0.887985 0)
(12.7995 0.868895 0)
(12.4576 0.849622 0)
(12.1234 0.830257 0)
(11.7969 0.810876 0)
(11.4783 0.791547 0)
(11.1674 0.772327 0)
(10.8641 0.753264 0)
(10.5684 0.734402 0)
(10.2803 0.715773 0)
(9.99957 0.697407 0)
(9.72613 0.679328 0)
(9.45986 0.661555 0)
(9.20064 0.644103 0)
(8.94833 0.626985 0)
(8.7028 0.61021 0)
(8.4639 0.593785 0)
(8.23149 0.577713 0)
(8.00543 0.561999 0)
(7.78557 0.546644 0)
(7.57176 0.531648 0)
(7.36387 0.517009 0)
(7.16174 0.502725 0)
(6.96524 0.488795 0)
(6.77422 0.475214 0)
(6.58855 0.461979 0)
(6.40808 0.449084 0)
(6.23268 0.436526 0)
(6.06221 0.424298 0)
(5.89654 0.412395 0)
(5.73555 0.400811 0)
(5.5791 0.389541 0)
(5.42708 0.378577 0)
(5.27935 0.367915 0)
(5.13581 0.357546 0)
(4.99633 0.347466 0)
(4.8608 0.337667 0)
(4.7291 0.328143 0)
(4.60114 0.318888 0)
(4.47681 0.309894 0)
(4.35599 0.301156 0)
(4.2386 0.292667 0)
(4.12453 0.28442 0)
(4.01368 0.27641 0)
(3.90597 0.26863 0)
(3.8013 0.261074 0)
(3.69959 0.253736 0)
(3.60074 0.246611 0)
(3.50468 0.239691 0)
(3.41133 0.232972 0)
(3.3206 0.226448 0)
(3.23243 0.220113 0)
(3.14673 0.213962 0)
(3.06343 0.20799 0)
(2.98246 0.202192 0)
(2.90376 0.196562 0)
(2.82726 0.191096 0)
(2.75289 0.185789 0)
(2.6806 0.180636 0)
(2.61031 0.175633 0)
(2.54198 0.170775 0)
(2.47555 0.166058 0)
(2.41096 0.161478 0)
(2.34815 0.15703 0)
(2.28708 0.152711 0)
(2.2277 0.148518 0)
(2.16995 0.144445 0)
(2.11379 0.14049 0)
(2.05917 0.136649 0)
(2.00605 0.132919 0)
(1.95438 0.129296 0)
(1.90413 0.125777 0)
(1.85524 0.122359 0)
(1.80769 0.119039 0)
(1.76144 0.115813 0)
(1.71644 0.11268 0)
(1.67266 0.109637 0)
(1.63007 0.10668 0)
(1.58862 0.103807 0)
(1.5483 0.101015 0)
(1.50907 0.0983029 0)
(1.47089 0.0956674 0)
(1.43373 0.0931063 0)
(1.39758 0.0906174 0)
(1.36239 0.0881986 0)
(1.32814 0.0858478 0)
(1.29481 0.083563 0)
(1.26236 0.0813422 0)
(1.23078 0.0791835 0)
(1.20004 0.077085 0)
(1.17012 0.0750451 0)
(1.14099 0.0730619 0)
(1.11263 0.0711339 0)
(1.08502 0.0692593 0)
(1.05814 0.0674366 0)
(1.03197 0.0656643 0)
(1.00648 0.0639409 0)
(0.981669 0.062265 0)
(0.957507 0.0606353 0)
(0.933978 0.0590502 0)
(0.911066 0.0575087 0)
(0.888752 0.0560093 0)
(0.867021 0.054551 0)
(0.845856 0.0531324 0)
(0.825243 0.0517525 0)
(0.805166 0.0504102 0)
(0.785611 0.0491043 0)
(0.766563 0.0478338 0)
(0.74801 0.0465977 0)
(0.729936 0.0453951 0)
(0.71233 0.044225 0)
(0.695179 0.0430864 0)
(0.67847 0.0419784 0)
(0.662192 0.0409003 0)
(0.646334 0.0398511 0)
(0.630883 0.03883 0)
(0.615829 0.0378363 0)
(0.601162 0.0368691 0)
(0.586872 0.0359278 0)
(0.572947 0.0350116 0)
(0.559379 0.0341198 0)
(0.546158 0.0332517 0)
(0.533275 0.0324067 0)
(0.520722 0.031584 0)
(0.508488 0.0307832 0)
(0.496567 0.0300036 0)
(0.484949 0.0292446 0)
(0.473627 0.0285056 0)
(0.462594 0.0277861 0)
(0.45184 0.0270855 0)
(0.441361 0.0264034 0)
(0.431147 0.0257392 0)
(0.421192 0.0250924 0)
(0.41149 0.0244626 0)
(0.402034 0.0238493 0)
(0.392818 0.023252 0)
(0.383834 0.0226703 0)
(0.375079 0.0221037 0)
(0.366544 0.021552 0)
(0.358226 0.0210146 0)
(0.350117 0.0204911 0)
(0.342214 0.0199813 0)
(0.33451 0.0194847 0)
(0.327 0.019001 0)
(0.31968 0.0185298 0)