/*--------------------------------*- C++ -*----------------------------------*\
| =========                 |                                                 |
| \\      /  F ield         | OpenFOAM: The Open Source CFD Toolbox           |
|  \\    /   O peration     | Version:  v2012                                 |
|   \\  /    A nd           | Website:  www.openfoam.com                      |
|    \\/     M anipulation  |                                                 |
\*---------------------------------------------------------------------------*/
FoamFile
{
    version     2.0;
    format      ascii;
    class       volScalarField;
    location    "0";
    object      ph_rgh;
}
// * * * * * * * * * * * * * * * * * * * * * * * * * * * * * * * * * * * * * //

dimensions      [1 -1 -2 0 0 0 0];


internalField   nonuniform List<scalar> 
65536
(
58271.8
58271.6
58271.2
58270.7
58269.9
58269
58267.9
58266.7
58265.2
58263.6
58261.8
58259.9
58257.8
58255.5
58253
58250.4
58247.7
58244.8
58241.7
58238.5
58235.2
58231.8
58228.2
58224.5
58220.7
58216.8
58212.7
58208.6
58204.4
58200
58195.6
58191.2
58186.6
58182
58177.3
58172.5
58167.7
58162.9
58158
58153.1
58148.1
58143.1
58138.1
58133.1
58128.1
58123
58118
58113
58107.9
58102.9
58097.9
58092.9
58088
58083
58078.1
58073.2
58068.4
58063.6
58058.8
58054.1
58049.4
58044.8
58040.2
58035.7
58031.2
58026.8
58022.5
58018.2
58014
58009.8
58005.7
58001.6
57997.6
57993.7
57989.9
57986.1
57982.4
57978.7
57975.1
57971.6
57968.2
57964.8
57961.4
57958.2
57955
57951.8
57948.8
57945.8
57942.8
57939.9
57937.1
57934.4
57931.7
57929
57926.4
57923.9
57921.5
57919
57916.7
57914.4
57912.1
57909.9
57907.8
57905.7
57903.6
57901.6
57899.7
57897.8
57895.9
57894.1
57892.3
57890.6
57888.9
57887.2
57885.6
57884
57882.5
57881
57879.5
57878.1
57876.7
57875.4
57874.1
57872.8
57871.5
57870.3
57869.1
57867.9
57866.8
57865.7
57864.6
57863.5
57862.5
57861.5
57860.5
57859.6
57858.6
57857.7
57856.9
57856
57855.2
57854.3
57853.5
57852.8
57852
57851.3
57850.5
57849.8
57849.1
57848.5
57847.8
57847.2
57846.6
57846
57845.4
57844.8
57844.2
57843.7
57843.2
57842.7
57842.1
57841.7
57841.2
57840.7
57840.2
57839.8
57839.4
57838.9
57838.5
57838.1
57837.7
57837.4
57837
57836.6
57836.3
57835.9
57835.6
57835.3
57834.9
57834.6
57834.3
57834
57833.7
57833.5
57833.2
57832.9
57832.7
57832.4
57832.2
57831.9
57831.7
57831.5
57831.2
57831
57830.8
57830.6
57830.4
57830.2
57830
57829.8
57829.6
57829.5
57829.3
57829.1
57829
57828.8
57828.6
57828.5
57828.3
57828.2
57828
57827.9
57827.8
57827.6
57827.5
57827.4
57827.3
57827.1
57827
57826.9
57826.8
57826.7
57826.6
57826.5
57826.4
57826.3
57826.2
57826.1
57826
57825.9
57825.9
57825.8
57825.7
57825.6
57825.5
57825.5
57825.4
57825.3
57825.2
57825.2
57825.1
57825
57825
57824.9
57824.9
57824.8
57824.8
57824.7
57824.6
57824.6
57824.5
57824.5
57824.4
57824.4
57824.3
57824.3
57824.3
57824.2
57824.2
57824.1
57824.1
57824.1
57824
57824
57823.9
57823.9
57823.9
57823.8
57823.8
57823.8
57823.7
57823.7
57823.7
57823.7
57823.6
57823.6
57823.6
57823.5
57823.5
57823.5
57823.5
57823.5
57823.4
57823.4
57823.4
57823.4
57823.3
57823.3
57823.3
57823.3
57823.3
57823.2
57823.2
57823.2
57823.2
57823.2
57823.2
57823.1
57823.1
57823.1
57823.1
57823.1
57823.1
57823.1
57823.1
57823
57823
57823
57823
57823
57823
57823
57823
57822.9
57822.9
57822.9
57822.9
57822.9
57822.9
57822.9
57822.9
57822.9
57822.9
57822.9
57822.8
57822.8
57822.8
57822.8
57822.8
57822.8
57822.8
57822.8
57822.8
57822.8
57822.8
57822.8
57822.8
57822.8
57822.8
57822.8
57822.7
57822.7
57822.7
57822.7
57822.7
57822.7
57822.7
57822.7
57822.7
57822.7
57822.7
57822.7
57822.7
57822.7
57822.7
57822.7
57822.7
57822.7
57822.7
57822.7
57822.7
57822.7
57822.7
57822.7
57822.7
57822.7
57822.6
57822.6
57822.6
57822.6
57822.6
57822.6
57822.6
57822.6
57822.6
57822.6
57822.6
57822.6
57822.6
57822.6
57822.6
57822.6
57822.6
57822.6
57822.6
57822.6
57822.6
57822.6
57822.6
57822.6
57822.6
57822.6
57822.6
57822.6
57822.6
57822.6
57822.6
57822.6
57822.6
57822.6
57822.6
57822.6
57822.6
57822.6
57822.6
57822.6
57822.6
57822.6
57822.6
57822.6
57822.6
57822.6
57822.6
57822.6
57822.6
57822.6
57822.6
57822.6
57822.6
57822.6
57822.6
57822.6
57822.6
57822.6
57822.6
57822.6
57822.6
57822.6
57822.6
57822.6
57822.6
57822.6
57822.6
57822.6
57822.6
57822.6
57822.6
57822.6
57822.6
57822.6
57822.6
57822.6
57822.6
57822.6
57822.6
57822.6
57822.6
57822.6
57822.6
57822.6
57822.6
57822.6
57822.6
57822.6
57822.6
57822.6
57822.6
57822.6
57822.6
57822.6
57822.6
57822.6
57822.6
57822.6
57822.6
57822.6
57822.6
57822.6
57822.6
57822.6
57822.6
57822.6
57822.6
57822.6
57822.6
57822.6
57822.6
57822.6
57822.6
57822.6
57822.6
57822.6
57822.6
57822.5
57822.5
57822.5
57822.5
57822.5
57822.5
57822.5
57822.5
57822.5
57822.5
57822.5
57822.5
57822.5
57822.5
57822.5
57822.5
57822.5
57822.5
57822.5
57822.5
57822.5
57822.5
57822.5
57822.5
57822.5
57822.5
57822.5
57822.5
57822.5
58268.3
58268.1
58267.8
58267.2
58266.5
58265.6
58264.5
58263.2
58261.8
58260.2
58258.4
58256.4
58254.3
58252
58249.6
58246.9
58244.2
58241.3
58238.2
58235.1
58231.7
58228.3
58224.7
58221
58217.2
58213.2
58209.2
58205.1
58200.8
58196.5
58192.1
58187.6
58183
58178.4
58173.7
58169
58164.2
58159.3
58154.4
58149.5
58144.5
58139.5
58134.5
58129.5
58124.5
58119.4
58114.4
58109.3
58104.3
58099.3
58094.3
58089.3
58084.3
58079.4
58074.4
58069.6
58064.7
58059.9
58055.1
58050.4
58045.8
58041.1
58036.5
58032
58027.6
58023.1
58018.8
58014.5
58010.3
58006.1
58002
57997.9
57994
57990
57986.2
57982.4
57978.7
57975
57971.4
57967.9
57964.5
57961.1
57957.7
57954.5
57951.3
57948.2
57945.1
57942.1
57939.1
57936.3
57933.4
57930.7
57928
57925.3
57922.8
57920.2
57917.8
57915.4
57913
57910.7
57908.4
57906.2
57904.1
57902
57899.9
57897.9
57896
57894.1
57892.2
57890.4
57888.6
57886.9
57885.2
57883.6
57881.9
57880.4
57878.8
57877.3
57875.9
57874.5
57873.1
57871.7
57870.4
57869.1
57867.9
57866.6
57865.4
57864.3
57863.1
57862
57860.9
57859.9
57858.9
57857.9
57856.9
57855.9
57855
57854.1
57853.2
57852.3
57851.5
57850.7
57849.9
57849.1
57848.4
57847.6
57846.9
57846.2
57845.5
57844.8
57844.2
57843.6
57842.9
57842.3
57841.7
57841.2
57840.6
57840.1
57839.5
57839
57838.5
57838
57837.5
57837.1
57836.6
57836.2
57835.7
57835.3
57834.9
57834.5
57834.1
57833.7
57833.4
57833
57832.6
57832.3
57832
57831.6
57831.3
57831
57830.7
57830.4
57830.1
57829.8
57829.6
57829.3
57829
57828.8
57828.5
57828.3
57828.1
57827.8
57827.6
57827.4
57827.2
57827
57826.8
57826.6
57826.4
57826.2
57826
57825.8
57825.7
57825.5
57825.3
57825.2
57825
57824.9
57824.7
57824.6
57824.4
57824.3
57824.1
57824
57823.9
57823.8
57823.6
57823.5
57823.4
57823.3
57823.2
57823.1
57823
57822.9
57822.8
57822.7
57822.6
57822.5
57822.4
57822.3
57822.2
57822.1
57822.1
57822
57821.9
57821.8
57821.8
57821.7
57821.6
57821.6
57821.5
57821.4
57821.4
57821.3
57821.2
57821.2
57821.1
57821.1
57821
57821
57820.9
57820.9
57820.8
57820.8
57820.7
57820.7
57820.6
57820.6
57820.6
57820.5
57820.5
57820.4
57820.4
57820.4
57820.3
57820.3
57820.3
57820.2
57820.2
57820.2
57820.1
57820.1
57820.1
57820
57820
57820
57820
57819.9
57819.9
57819.9
57819.9
57819.8
57819.8
57819.8
57819.8
57819.7
57819.7
57819.7
57819.7
57819.7
57819.6
57819.6
57819.6
57819.6
57819.6
57819.6
57819.5
57819.5
57819.5
57819.5
57819.5
57819.5
57819.5
57819.4
57819.4
57819.4
57819.4
57819.4
57819.4
57819.4
57819.4
57819.3
57819.3
57819.3
57819.3
57819.3
57819.3
57819.3
57819.3
57819.3
57819.3
57819.3
57819.2
57819.2
57819.2
57819.2
57819.2
57819.2
57819.2
57819.2
57819.2
57819.2
57819.2
57819.2
57819.2
57819.2
57819.1
57819.1
57819.1
57819.1
57819.1
57819.1
57819.1
57819.1
57819.1
57819.1
57819.1
57819.1
57819.1
57819.1
57819.1
57819.1
57819.1
57819.1
57819.1
57819.1
57819.1
57819.1
57819.1
57819
57819
57819
57819
57819
57819
57819
57819
57819
57819
57819
57819
57819
57819
57819
57819
57819
57819
57819
57819
57819
57819
57819
57819
57819
57819
57819
57819
57819
57819
57819
57819
57819
57819
57819
57819
57819
57819
57819
57819
57819
57819
57819
57819
57819
57819
57819
57819
57819
57819
57819
57819
57819
57819
57819
57819
57819
57819
57819
57819
57819
57818.9
57818.9
57818.9
57818.9
57818.9
57818.9
57818.9
57818.9
57818.9
57818.9
57818.9
57818.9
57818.9
57818.9
57818.9
57818.9
57818.9
57818.9
57818.9
57818.9
57818.9
57818.9
57818.9
57818.9
57818.9
57818.9
57818.9
57818.9
57818.9
57818.9
57818.9
57818.9
57818.9
57818.9
57818.9
57818.9
57818.9
57818.9
57818.9
57818.9
57818.9
57818.9
57818.9
57818.9
57818.9
57818.9
57818.9
57818.9
57818.9
57818.9
57818.9
57818.9
57818.9
57818.9
57818.9
57818.9
57818.9
57818.9
57818.9
57818.9
57818.9
57818.9
57818.9
57818.9
57818.9
57818.9
57818.9
57818.9
57818.9
57818.9
57818.9
57818.9
57818.9
57818.9
57818.9
57818.9
57818.9
57818.9
57818.9
57818.9
57818.9
57818.9
57818.9
57818.9
57818.9
57818.9
57818.9
57818.9
57818.9
57818.9
57818.9
57818.9
58261.5
58261.3
58260.9
58260.3
58259.6
58258.7
58257.6
58256.3
58254.9
58253.3
58251.5
58249.5
58247.4
58245.1
58242.6
58240
58237.2
58234.3
58231.3
58228.1
58224.7
58221.3
58217.7
58214
58210.1
58206.2
58202.2
58198
58193.8
58189.4
58185
58180.5
58175.9
58171.3
58166.6
58161.8
58157
58152.1
58147.2
58142.3
58137.3
58132.3
58127.3
58122.3
58117.2
58112.2
58107.1
58102.1
58097
58092
58087
58082
58077
58072.1
58067.1
58062.3
58057.4
58052.6
58047.8
58043.1
58038.4
58033.8
58029.2
58024.7
58020.2
58015.8
58011.4
58007.1
58002.9
57998.7
57994.6
57990.6
57986.6
57982.7
57978.8
57975
57971.3
57967.7
57964.1
57960.5
57957.1
57953.7
57950.4
57947.1
57943.9
57940.8
57937.7
57934.7
57931.8
57928.9
57926.1
57923.3
57920.6
57918
57915.4
57912.9
57910.4
57908
57905.7
57903.4
57901.1
57898.9
57896.8
57894.7
57892.6
57890.6
57888.7
57886.8
57884.9
57883.1
57881.3
57879.6
57877.9
57876.2
57874.6
57873.1
57871.5
57870
57868.6
57867.2
57865.8
57864.4
57863.1
57861.8
57860.6
57859.3
57858.1
57857
57855.8
57854.7
57853.7
57852.6
57851.6
57850.6
57849.6
57848.6
57847.7
57846.8
57845.9
57845.1
57844.2
57843.4
57842.6
57841.8
57841.1
57840.3
57839.6
57838.9
57838.2
57837.6
57836.9
57836.3
57835.7
57835.1
57834.5
57833.9
57833.4
57832.8
57832.3
57831.8
57831.3
57830.8
57830.3
57829.8
57829.4
57828.9
57828.5
57828.1
57827.7
57827.3
57826.9
57826.5
57826.1
57825.7
57825.4
57825.1
57824.7
57824.4
57824.1
57823.8
57823.5
57823.2
57822.9
57822.6
57822.3
57822.1
57821.8
57821.5
57821.3
57821.1
57820.8
57820.6
57820.4
57820.1
57819.9
57819.7
57819.5
57819.3
57819.1
57819
57818.8
57818.6
57818.4
57818.3
57818.1
57817.9
57817.8
57817.6
57817.5
57817.3
57817.2
57817
57816.9
57816.8
57816.7
57816.5
57816.4
57816.3
57816.2
57816.1
57816
57815.8
57815.7
57815.6
57815.5
57815.4
57815.4
57815.3
57815.2
57815.1
57815
57814.9
57814.8
57814.8
57814.7
57814.6
57814.5
57814.5
57814.4
57814.3
57814.3
57814.2
57814.1
57814.1
57814
57814
57813.9
57813.8
57813.8
57813.7
57813.7
57813.6
57813.6
57813.5
57813.5
57813.4
57813.4
57813.4
57813.3
57813.3
57813.2
57813.2
57813.2
57813.1
57813.1
57813.1
57813
57813
57813
57812.9
57812.9
57812.9
57812.8
57812.8
57812.8
57812.7
57812.7
57812.7
57812.7
57812.6
57812.6
57812.6
57812.6
57812.6
57812.5
57812.5
57812.5
57812.5
57812.5
57812.4
57812.4
57812.4
57812.4
57812.4
57812.3
57812.3
57812.3
57812.3
57812.3
57812.3
57812.3
57812.2
57812.2
57812.2
57812.2
57812.2
57812.2
57812.2
57812.2
57812.1
57812.1
57812.1
57812.1
57812.1
57812.1
57812.1
57812.1
57812.1
57812
57812
57812
57812
57812
57812
57812
57812
57812
57812
57812
57812
57812
57811.9
57811.9
57811.9
57811.9
57811.9
57811.9
57811.9
57811.9
57811.9
57811.9
57811.9
57811.9
57811.9
57811.9
57811.9
57811.9
57811.9
57811.9
57811.9
57811.9
57811.8
57811.8
57811.8
57811.8
57811.8
57811.8
57811.8
57811.8
57811.8
57811.8
57811.8
57811.8
57811.8
57811.8
57811.8
57811.8
57811.8
57811.8
57811.8
57811.8
57811.8
57811.8
57811.8
57811.8
57811.8
57811.8
57811.8
57811.8
57811.8
57811.8
57811.8
57811.8
57811.8
57811.8
57811.8
57811.8
57811.8
57811.8
57811.8
57811.8
57811.7
57811.7
57811.7
57811.7
57811.7
57811.7
57811.7
57811.7
57811.7
57811.7
57811.7
57811.7
57811.7
57811.7
57811.7
57811.7
57811.7
57811.7
57811.7
57811.7
57811.7
57811.7
57811.7
57811.7
57811.7
57811.7
57811.7
57811.7
57811.7
57811.7
57811.7
57811.7
57811.7
57811.7
57811.7
57811.7
57811.7
57811.7
57811.7
57811.7
57811.7
57811.7
57811.7
57811.7
57811.7
57811.7
57811.7
57811.7
57811.7
57811.7
57811.7
57811.7
57811.7
57811.7
57811.7
57811.7
57811.7
57811.7
57811.7
57811.7
57811.7
57811.7
57811.7
57811.7
57811.7
57811.7
57811.7
57811.7
57811.7
57811.7
57811.7
57811.7
57811.7
57811.7
57811.7
57811.7
57811.7
57811.7
57811.7
57811.7
57811.7
57811.7
57811.7
57811.7
57811.7
57811.7
57811.7
57811.7
57811.7
57811.7
57811.7
57811.7
57811.7
57811.7
57811.7
57811.7
57811.7
57811.7
57811.7
57811.7
57811.7
57811.7
57811.7
57811.7
57811.7
57811.7
57811.7
57811.7
57811.7
57811.7
57811.7
57811.7
57811.7
57811.7
57811.7
57811.7
57811.7
57811.7
57811.7
57811.7
57811.7
58251.2
58251
58250.6
58250.1
58249.3
58248.4
58247.3
58246
58244.6
58242.9
58241.1
58239.2
58237
58234.7
58232.3
58229.6
58226.9
58223.9
58220.9
58217.7
58214.3
58210.8
58207.2
58203.5
58199.6
58195.7
58191.6
58187.5
58183.2
58178.9
58174.4
58169.9
58165.3
58160.7
58155.9
58151.2
58146.3
58141.4
58136.5
58131.6
58126.6
58121.6
58116.5
58111.5
58106.4
58101.4
58096.3
58091.2
58086.2
58081.1
58076.1
58071.1
58066.1
58061.1
58056.2
58051.3
58046.5
58041.6
58036.9
58032.1
58027.4
58022.8
58018.2
58013.7
58009.2
58004.8
58000.4
57996.1
57991.9
57987.7
57983.6
57979.6
57975.6
57971.7
57967.8
57964
57960.3
57956.6
57953.1
57949.5
57946.1
57942.7
57939.4
57936.1
57932.9
57929.8
57926.7
57923.7
57920.8
57917.9
57915.1
57912.3
57909.6
57907
57904.4
57901.9
57899.4
57897
57894.7
57892.4
57890.1
57887.9
57885.8
57883.7
57881.7
57879.7
57877.7
57875.8
57873.9
57872.1
57870.4
57868.6
57867
57865.3
57863.7
57862.1
57860.6
57859.1
57857.7
57856.2
57854.9
57853.5
57852.2
57850.9
57849.7
57848.4
57847.2
57846.1
57844.9
57843.8
57842.8
57841.7
57840.7
57839.7
57838.7
57837.8
57836.8
57835.9
57835.1
57834.2
57833.4
57832.5
57831.7
57831
57830.2
57829.5
57828.8
57828.1
57827.4
57826.7
57826.1
57825.4
57824.8
57824.2
57823.6
57823.1
57822.5
57822
57821.4
57820.9
57820.4
57819.9
57819.4
57819
57818.5
57818.1
57817.6
57817.2
57816.8
57816.4
57816
57815.6
57815.3
57814.9
57814.6
57814.2
57813.9
57813.6
57813.2
57812.9
57812.6
57812.3
57812
57811.8
57811.5
57811.2
57811
57810.7
57810.5
57810.2
57810
57809.8
57809.5
57809.3
57809.1
57808.9
57808.7
57808.5
57808.3
57808.1
57807.9
57807.8
57807.6
57807.4
57807.3
57807.1
57806.9
57806.8
57806.6
57806.5
57806.4
57806.2
57806.1
57806
57805.8
57805.7
57805.6
57805.5
57805.4
57805.2
57805.1
57805
57804.9
57804.8
57804.7
57804.6
57804.5
57804.4
57804.4
57804.3
57804.2
57804.1
57804
57803.9
57803.9
57803.8
57803.7
57803.6
57803.6
57803.5
57803.4
57803.4
57803.3
57803.3
57803.2
57803.1
57803.1
57803
57803
57802.9
57802.9
57802.8
57802.8
57802.7
57802.7
57802.6
57802.6
57802.5
57802.5
57802.5
57802.4
57802.4
57802.3
57802.3
57802.3
57802.2
57802.2
57802.2
57802.1
57802.1
57802.1
57802.1
57802
57802
57802
57801.9
57801.9
57801.9
57801.9
57801.8
57801.8
57801.8
57801.8
57801.7
57801.7
57801.7
57801.7
57801.7
57801.6
57801.6
57801.6
57801.6
57801.6
57801.6
57801.5
57801.5
57801.5
57801.5
57801.5
57801.5
57801.4
57801.4
57801.4
57801.4
57801.4
57801.4
57801.4
57801.4
57801.3
57801.3
57801.3
57801.3
57801.3
57801.3
57801.3
57801.3
57801.3
57801.2
57801.2
57801.2
57801.2
57801.2
57801.2
57801.2
57801.2
57801.2
57801.2
57801.2
57801.2
57801.2
57801.1
57801.1
57801.1
57801.1
57801.1
57801.1
57801.1
57801.1
57801.1
57801.1
57801.1
57801.1
57801.1
57801.1
57801.1
57801.1
57801.1
57801.1
57801.1
57801
57801
57801
57801
57801
57801
57801
57801
57801
57801
57801
57801
57801
57801
57801
57801
57801
57801
57801
57801
57801
57801
57801
57801
57801
57801
57801
57801
57801
57801
57801
57801
57801
57801
57801
57801
57800.9
57800.9
57800.9
57800.9
57800.9
57800.9
57800.9
57800.9
57800.9
57800.9
57800.9
57800.9
57800.9
57800.9
57800.9
57800.9
57800.9
57800.9
57800.9
57800.9
57800.9
57800.9
57800.9
57800.9
57800.9
57800.9
57800.9
57800.9
57800.9
57800.9
57800.9
57800.9
57800.9
57800.9
57800.9
57800.9
57800.9
57800.9
57800.9
57800.9
57800.9
57800.9
57800.9
57800.9
57800.9
57800.9
57800.9
57800.9
57800.9
57800.9
57800.9
57800.9
57800.9
57800.9
57800.9
57800.9
57800.9
57800.9
57800.9
57800.9
57800.9
57800.9
57800.9
57800.9
57800.9
57800.9
57800.9
57800.9
57800.9
57800.9
57800.9
57800.9
57800.9
57800.9
57800.9
57800.9
57800.9
57800.9
57800.9
57800.9
57800.9
57800.9
57800.9
57800.9
57800.9
57800.9
57800.9
57800.9
57800.9
57800.9
57800.9
57800.9
57800.9
57800.9
57800.9
57800.9
57800.9
57800.9
57800.9
57800.9
57800.9
57800.9
57800.9
57800.9
57800.9
57800.9
57800.9
57800.9
57800.9
57800.9
57800.9
57800.9
57800.9
57800.9
57800.9
57800.9
57800.9
57800.9
57800.9
57800.9
57800.9
57800.9
57800.9
57800.9
57800.9
57800.9
57800.9
58237.5
58237.3
58236.9
58236.4
58235.6
58234.7
58233.6
58232.3
58230.9
58229.2
58227.4
58225.4
58223.3
58220.9
58218.5
58215.8
58213
58210.1
58207
58203.8
58200.4
58196.9
58193.3
58189.5
58185.7
58181.7
58177.6
58173.4
58169.1
58164.8
58160.3
58155.8
58151.2
58146.5
58141.7
58136.9
58132.1
58127.2
58122.2
58117.3
58112.3
58107.2
58102.2
58097.1
58092
58087
58081.9
58076.8
58071.7
58066.7
58061.6
58056.6
58051.6
58046.6
58041.7
58036.8
58031.9
58027.1
58022.3
58017.5
58012.8
58008.2
58003.6
57999.1
57994.6
57990.1
57985.8
57981.5
57977.2
57973.1
57968.9
57964.9
57960.9
57957
57953.1
57949.3
57945.6
57942
57938.4
57934.9
57931.4
57928
57924.7
57921.4
57918.2
57915.1
57912.1
57909.1
57906.1
57903.3
57900.4
57897.7
57895
57892.4
57889.8
57887.3
57884.8
57882.4
57880.1
57877.8
57875.5
57873.3
57871.2
57869.1
57867.1
57865.1
57863.1
57861.2
57859.4
57857.6
57855.8
57854.1
57852.4
57850.7
57849.1
57847.6
57846.1
57844.6
57843.1
57841.7
57840.3
57839
57837.7
57836.4
57835.1
57833.9
57832.7
57831.6
57830.4
57829.3
57828.3
57827.2
57826.2
57825.2
57824.2
57823.3
57822.4
57821.4
57820.6
57819.7
57818.9
57818.1
57817.3
57816.5
57815.7
57815
57814.3
57813.6
57812.9
57812.3
57811.6
57811
57810.4
57809.8
57809.2
57808.6
57808
57807.5
57807
57806.5
57806
57805.5
57805
57804.5
57804.1
57803.6
57803.2
57802.8
57802.4
57802
57801.6
57801.2
57800.8
57800.5
57800.1
57799.8
57799.5
57799.1
57798.8
57798.5
57798.2
57797.9
57797.6
57797.3
57797.1
57796.8
57796.5
57796.3
57796
57795.8
57795.6
57795.3
57795.1
57794.9
57794.7
57794.5
57794.3
57794.1
57793.9
57793.7
57793.5
57793.4
57793.2
57793
57792.9
57792.7
57792.5
57792.4
57792.2
57792.1
57792
57791.8
57791.7
57791.6
57791.4
57791.3
57791.2
57791.1
57791
57790.8
57790.7
57790.6
57790.5
57790.4
57790.3
57790.2
57790.1
57790
57790
57789.9
57789.8
57789.7
57789.6
57789.5
57789.5
57789.4
57789.3
57789.2
57789.2
57789.1
57789
57789
57788.9
57788.9
57788.8
57788.7
57788.7
57788.6
57788.6
57788.5
57788.5
57788.4
57788.4
57788.3
57788.3
57788.2
57788.2
57788.2
57788.1
57788.1
57788
57788
57788
57787.9
57787.9
57787.8
57787.8
57787.8
57787.8
57787.7
57787.7
57787.7
57787.6
57787.6
57787.6
57787.5
57787.5
57787.5
57787.5
57787.4
57787.4
57787.4
57787.4
57787.4
57787.3
57787.3
57787.3
57787.3
57787.3
57787.2
57787.2
57787.2
57787.2
57787.2
57787.1
57787.1
57787.1
57787.1
57787.1
57787.1
57787.1
57787
57787
57787
57787
57787
57787
57787
57787
57786.9
57786.9
57786.9
57786.9
57786.9
57786.9
57786.9
57786.9
57786.9
57786.8
57786.8
57786.8
57786.8
57786.8
57786.8
57786.8
57786.8
57786.8
57786.8
57786.8
57786.8
57786.8
57786.7
57786.7
57786.7
57786.7
57786.7
57786.7
57786.7
57786.7
57786.7
57786.7
57786.7
57786.7
57786.7
57786.7
57786.7
57786.7
57786.7
57786.7
57786.7
57786.7
57786.6
57786.6
57786.6
57786.6
57786.6
57786.6
57786.6
57786.6
57786.6
57786.6
57786.6
57786.6
57786.6
57786.6
57786.6
57786.6
57786.6
57786.6
57786.6
57786.6
57786.6
57786.6
57786.6
57786.6
57786.6
57786.6
57786.6
57786.6
57786.6
57786.6
57786.6
57786.6
57786.6
57786.6
57786.6
57786.6
57786.6
57786.6
57786.6
57786.6
57786.6
57786.5
57786.5
57786.5
57786.5
57786.5
57786.5
57786.5
57786.5
57786.5
57786.5
57786.5
57786.5
57786.5
57786.5
57786.5
57786.5
57786.5
57786.5
57786.5
57786.5
57786.5
57786.5
57786.5
57786.5
57786.5
57786.5
57786.5
57786.5
57786.5
57786.5
57786.5
57786.5
57786.5
57786.5
57786.5
57786.5
57786.5
57786.5
57786.5
57786.5
57786.5
57786.5
57786.5
57786.5
57786.5
57786.5
57786.5
57786.5
57786.5
57786.5
57786.5
57786.5
57786.5
57786.5
57786.5
57786.5
57786.5
57786.5
57786.5
57786.5
57786.5
57786.5
57786.5
57786.5
57786.5
57786.5
57786.5
57786.5
57786.5
57786.5
57786.5
57786.5
57786.5
57786.5
57786.5
57786.5
57786.5
57786.5
57786.5
57786.5
57786.5
57786.5
57786.5
57786.5
57786.5
57786.5
57786.5
57786.5
57786.5
57786.5
57786.5
57786.5
57786.5
57786.5
57786.5
57786.5
57786.5
57786.5
57786.5
57786.5
57786.5
57786.5
57786.5
57786.5
57786.5
57786.5
57786.5
57786.5
57786.5
57786.5
57786.5
57786.5
57786.5
57786.5
57786.5
57786.5
57786.5
57786.5
57786.5
57786.5
58220.5
58220.3
58219.9
58219.3
58218.6
58217.7
58216.5
58215.2
58213.8
58212.1
58210.3
58208.3
58206.1
58203.8
58201.3
58198.6
58195.8
58192.9
58189.8
58186.5
58183.1
58179.6
58175.9
58172.2
58168.3
58164.3
58160.2
58155.9
58151.6
58147.2
58142.8
58138.2
58133.5
58128.8
58124.1
58119.2
58114.4
58109.4
58104.5
58099.5
58094.4
58089.4
58084.3
58079.2
58074.1
58069
58063.9
58058.8
58053.7
58048.6
58043.5
58038.5
58033.5
58028.5
58023.5
58018.6
58013.7
58008.9
58004.1
57999.3
57994.6
57990
57985.4
57980.8
57976.3
57971.9
57967.5
57963.2
57959
57954.8
57950.7
57946.6
57942.6
57938.7
57934.8
57931.1
57927.3
57923.7
57920.1
57916.6
57913.1
57909.7
57906.4
57903.2
57900
57896.9
57893.8
57890.8
57887.9
57885
57882.2
57879.4
57876.8
57874.1
57871.6
57869.1
57866.6
57864.2
57861.9
57859.6
57857.3
57855.1
57853
57850.9
57848.9
57846.9
57845
57843.1
57841.2
57839.4
57837.6
57835.9
57834.2
57832.6
57831
57829.5
57827.9
57826.4
57825
57823.6
57822.2
57820.9
57819.6
57818.3
57817
57815.8
57814.6
57813.5
57812.4
57811.3
57810.2
57809.1
57808.1
57807.1
57806.2
57805.2
57804.3
57803.4
57802.5
57801.7
57800.8
57800
57799.2
57798.5
57797.7
57797
57796.3
57795.6
57794.9
57794.2
57793.6
57793
57792.3
57791.8
57791.2
57790.6
57790
57789.5
57789
57788.5
57788
57787.5
57787
57786.5
57786.1
57785.7
57785.2
57784.8
57784.4
57784
57783.6
57783.2
57782.9
57782.5
57782.2
57781.8
57781.5
57781.2
57780.8
57780.5
57780.2
57779.9
57779.7
57779.4
57779.1
57778.8
57778.6
57778.3
57778.1
57777.8
57777.6
57777.4
57777.2
57777
57776.7
57776.5
57776.3
57776.1
57776
57775.8
57775.6
57775.4
57775.2
57775.1
57774.9
57774.8
57774.6
57774.4
57774.3
57774.2
57774
57773.9
57773.7
57773.6
57773.5
57773.4
57773.2
57773.1
57773
57772.9
57772.8
57772.7
57772.6
57772.5
57772.4
57772.3
57772.2
57772.1
57772
57771.9
57771.8
57771.8
57771.7
57771.6
57771.5
57771.5
57771.4
57771.3
57771.2
57771.2
57771.1
57771
57771
57770.9
57770.9
57770.8
57770.8
57770.7
57770.6
57770.6
57770.5
57770.5
57770.4
57770.4
57770.4
57770.3
57770.3
57770.2
57770.2
57770.1
57770.1
57770.1
57770
57770
57770
57769.9
57769.9
57769.9
57769.8
57769.8
57769.8
57769.7
57769.7
57769.7
57769.6
57769.6
57769.6
57769.6
57769.5
57769.5
57769.5
57769.5
57769.4
57769.4
57769.4
57769.4
57769.4
57769.3
57769.3
57769.3
57769.3
57769.3
57769.2
57769.2
57769.2
57769.2
57769.2
57769.2
57769.2
57769.1
57769.1
57769.1
57769.1
57769.1
57769.1
57769.1
57769
57769
57769
57769
57769
57769
57769
57769
57769
57768.9
57768.9
57768.9
57768.9
57768.9
57768.9
57768.9
57768.9
57768.9
57768.9
57768.9
57768.9
57768.8
57768.8
57768.8
57768.8
57768.8
57768.8
57768.8
57768.8
57768.8
57768.8
57768.8
57768.8
57768.8
57768.8
57768.8
57768.8
57768.8
57768.7
57768.7
57768.7
57768.7
57768.7
57768.7
57768.7
57768.7
57768.7
57768.7
57768.7
57768.7
57768.7
57768.7
57768.7
57768.7
57768.7
57768.7
57768.7
57768.7
57768.7
57768.7
57768.7
57768.7
57768.7
57768.7
57768.7
57768.7
57768.7
57768.7
57768.7
57768.7
57768.6
57768.6
57768.6
57768.6
57768.6
57768.6
57768.6
57768.6
57768.6
57768.6
57768.6
57768.6
57768.6
57768.6
57768.6
57768.6
57768.6
57768.6
57768.6
57768.6
57768.6
57768.6
57768.6
57768.6
57768.6
57768.6
57768.6
57768.6
57768.6
57768.6
57768.6
57768.6
57768.6
57768.6
57768.6
57768.6
57768.6
57768.6
57768.6
57768.6
57768.6
57768.6
57768.6
57768.6
57768.6
57768.6
57768.6
57768.6
57768.6
57768.6
57768.6
57768.6
57768.6
57768.6
57768.6
57768.6
57768.6
57768.6
57768.6
57768.6
57768.6
57768.6
57768.6
57768.6
57768.6
57768.6
57768.6
57768.6
57768.6
57768.6
57768.6
57768.6
57768.6
57768.6
57768.6
57768.6
57768.6
57768.6
57768.6
57768.6
57768.6
57768.6
57768.6
57768.6
57768.6
57768.6
57768.6
57768.6
57768.6
57768.6
57768.6
57768.6
57768.6
57768.6
57768.6
57768.6
57768.6
57768.6
57768.6
57768.6
57768.6
57768.6
57768.6
57768.6
57768.6
57768.6
57768.6
57768.6
57768.6
57768.6
57768.6
57768.6
57768.6
57768.6
57768.6
57768.6
57768.6
57768.6
57768.6
57768.6
57768.6
57768.6
57768.6
57768.6
57768.6
57768.6
57768.6
57768.6
57768.6
57768.6
57768.6
57768.6
57768.6
57768.6
57768.6
57768.6
58200.1
58199.9
58199.5
58198.9
58198.2
58197.2
58196.1
58194.8
58193.3
58191.6
58189.8
58187.8
58185.6
58183.2
58180.7
58178
58175.2
58172.2
58169.1
58165.8
58162.4
58158.8
58155.2
58151.4
58147.4
58143.4
58139.3
58135
58130.7
58126.2
58121.7
58117.1
58112.4
58107.7
58102.9
58098
58093.1
58088.2
58083.2
58078.1
58073.1
58068
58062.9
58057.8
58052.6
58047.5
58042.4
58037.2
58032.1
58027
58021.9
58016.8
58011.8
58006.8
58001.8
57996.9
57992
57987.1
57982.3
57977.5
57972.8
57968.1
57963.5
57959
57954.5
57950
57945.6
57941.3
57937.1
57932.9
57928.8
57924.7
57920.7
57916.8
57912.9
57909.1
57905.4
57901.8
57898.2
57894.7
57891.2
57887.8
57884.5
57881.3
57878.1
57875
57871.9
57868.9
57866
57863.1
57860.3
57857.6
57854.9
57852.3
57849.7
57847.2
57844.8
57842.4
57840
57837.7
57835.5
57833.3
57831.2
57829.1
57827.1
57825.1
57823.2
57821.3
57819.4
57817.6
57815.9
57814.2
57812.5
57810.9
57809.3
57807.7
57806.2
57804.7
57803.3
57801.9
57800.5
57799.2
57797.9
57796.6
57795.4
57794.2
57793
57791.8
57790.7
57789.6
57788.5
57787.5
57786.5
57785.5
57784.5
57783.6
57782.7
57781.8
57780.9
57780.1
57779.2
57778.4
57777.6
57776.9
57776.1
57775.4
57774.7
57774
57773.3
57772.7
57772
57771.4
57770.8
57770.2
57769.6
57769
57768.5
57767.9
57767.4
57766.9
57766.4
57765.9
57765.5
57765
57764.5
57764.1
57763.7
57763.3
57762.9
57762.5
57762.1
57761.7
57761.3
57761
57760.6
57760.3
57760
57759.6
57759.3
57759
57758.7
57758.4
57758.1
57757.9
57757.6
57757.3
57757.1
57756.8
57756.6
57756.3
57756.1
57755.9
57755.7
57755.4
57755.2
57755
57754.8
57754.6
57754.4
57754.3
57754.1
57753.9
57753.7
57753.6
57753.4
57753.2
57753.1
57752.9
57752.8
57752.7
57752.5
57752.4
57752.2
57752.1
57752
57751.9
57751.7
57751.6
57751.5
57751.4
57751.3
57751.2
57751.1
57751
57750.9
57750.8
57750.7
57750.6
57750.5
57750.4
57750.4
57750.3
57750.2
57750.1
57750
57750
57749.9
57749.8
57749.8
57749.7
57749.6
57749.6
57749.5
57749.4
57749.4
57749.3
57749.3
57749.2
57749.2
57749.1
57749.1
57749
57749
57748.9
57748.9
57748.8
57748.8
57748.7
57748.7
57748.7
57748.6
57748.6
57748.5
57748.5
57748.5
57748.4
57748.4
57748.4
57748.3
57748.3
57748.3
57748.2
57748.2
57748.2
57748.2
57748.1
57748.1
57748.1
57748.1
57748
57748
57748
57748
57747.9
57747.9
57747.9
57747.9
57747.9
57747.8
57747.8
57747.8
57747.8
57747.8
57747.7
57747.7
57747.7
57747.7
57747.7
57747.7
57747.7
57747.6
57747.6
57747.6
57747.6
57747.6
57747.6
57747.6
57747.6
57747.5
57747.5
57747.5
57747.5
57747.5
57747.5
57747.5
57747.5
57747.5
57747.4
57747.4
57747.4
57747.4
57747.4
57747.4
57747.4
57747.4
57747.4
57747.4
57747.4
57747.4
57747.4
57747.3
57747.3
57747.3
57747.3
57747.3
57747.3
57747.3
57747.3
57747.3
57747.3
57747.3
57747.3
57747.3
57747.3
57747.3
57747.3
57747.3
57747.3
57747.3
57747.2
57747.2
57747.2
57747.2
57747.2
57747.2
57747.2
57747.2
57747.2
57747.2
57747.2
57747.2
57747.2
57747.2
57747.2
57747.2
57747.2
57747.2
57747.2
57747.2
57747.2
57747.2
57747.2
57747.2
57747.2
57747.2
57747.2
57747.2
57747.2
57747.2
57747.2
57747.2
57747.2
57747.2
57747.2
57747.2
57747.2
57747.2
57747.1
57747.1
57747.1
57747.1
57747.1
57747.1
57747.1
57747.1
57747.1
57747.1
57747.1
57747.1
57747.1
57747.1
57747.1
57747.1
57747.1
57747.1
57747.1
57747.1
57747.1
57747.1
57747.1
57747.1
57747.1
57747.1
57747.1
57747.1
57747.1
57747.1
57747.1
57747.1
57747.1
57747.1
57747.1
57747.1
57747.1
57747.1
57747.1
57747.1
57747.1
57747.1
57747.1
57747.1
57747.1
57747.1
57747.1
57747.1
57747.1
57747.1
57747.1
57747.1
57747.1
57747.1
57747.1
57747.1
57747.1
57747.1
57747.1
57747.1
57747.1
57747.1
57747.1
57747.1
57747.1
57747.1
57747.1
57747.1
57747.1
57747.1
57747.1
57747.1
57747.1
57747.1
57747.1
57747.1
57747.1
57747.1
57747.1
57747.1
57747.1
57747.1
57747.1
57747.1
57747.1
57747.1
57747.1
57747.1
57747.1
57747.1
57747.1
57747.1
57747.1
57747.1
57747.1
57747.1
57747.1
57747.1
57747.1
57747.1
57747.1
57747.1
57747.1
57747.1
57747.1
57747.1
57747.1
57747.1
57747.1
57747.1
57747.1
57747.1
57747.1
57747.1
57747.1
57747.1
57747.1
57747.1
57747.1
57747.1
57747.1
57747.1
57747.1
57747.1
57747.1
58176.4
58176.2
58175.8
58175.2
58174.4
58173.5
58172.4
58171
58169.5
58167.8
58166
58163.9
58161.7
58159.4
58156.8
58154.1
58151.2
58148.2
58145.1
58141.8
58138.3
58134.7
58131
58127.2
58123.2
58119.1
58115
58110.7
58106.3
58101.8
58097.3
58092.6
58087.9
58083.1
58078.3
58073.4
58068.4
58063.4
58058.4
58053.3
58048.2
58043.1
58038
58032.8
58027.6
58022.5
58017.3
58012.1
58007
58001.9
57996.7
57991.7
57986.6
57981.6
57976.6
57971.6
57966.7
57961.8
57957
57952.2
57947.4
57942.7
57938.1
57933.6
57929
57924.6
57920.2
57915.9
57911.6
57907.4
57903.3
57899.2
57895.2
57891.3
57887.5
57883.7
57879.9
57876.3
57872.7
57869.2
57865.7
57862.4
57859
57855.8
57852.6
57849.5
57846.4
57843.5
57840.5
57837.7
57834.9
57832.2
57829.5
57826.9
57824.3
57821.8
57819.4
57817
57814.6
57812.4
57810.1
57808
57805.9
57803.8
57801.8
57799.8
57797.9
57796
57794.1
57792.3
57790.6
57788.9
57787.2
57785.6
57784
57782.5
57781
57779.5
57778.1
57776.7
57775.3
57774
57772.7
57771.4
57770.2
57768.9
57767.8
57766.6
57765.5
57764.4
57763.4
57762.3
57761.3
57760.3
57759.4
57758.4
57757.5
57756.6
57755.8
57754.9
57754.1
57753.3
57752.5
57751.7