/*--------------------------------*- C++ -*----------------------------------*\
| =========                 |                                                 |
| \\      /  F ield         | OpenFOAM: The Open Source CFD Toolbox           |
|  \\    /   O peration     | Version:  v2012                                 |
|   \\  /    A nd           | Website:  www.openfoam.com                      |
|    \\/     M anipulation  |                                                 |
\*---------------------------------------------------------------------------*/
FoamFile
{
    version     2.0;
    format      ascii;
    class       volScalarField;
    location    "500";
    object      aE;
}
// * * * * * * * * * * * * * * * * * * * * * * * * * * * * * * * * * * * * * //

dimensions      [0 0 0 0 0 0 0];


internalField   nonuniform List<scalar> 
65536
(
5.42796
5.42485
5.41681
5.41406
5.41698
5.42307
5.42612
5.40704
5.40951
5.42445
5.42299
5.42403
5.42616
5.42626
5.43313
5.43507
5.42862
5.42755
5.42838
5.43295
5.44334
5.45203
5.45332
5.44961
5.45028
5.45553
5.4585
5.46788
5.48148
5.49164
5.49834
5.50669
5.51281
5.5127
5.50359
5.48944
5.48435
5.49113
5.50195
5.50186
5.50696
5.52015
5.52343
5.53084
5.54736
5.54935
5.53976
5.52635
5.50892
5.51027
5.53652
5.56579
5.57721
5.55254
5.52474
5.54444
5.57487
5.54892
5.52387
5.52797
5.61957
5.63281
5.56353
5.57605
5.53326
5.55844
5.58219
5.59908
5.4851
5.4613
5.61492
5.54332
5.29451
5.56082
5.75274
5.39075
4.76526
5.40166
5.50578
5.42805
5.21654
5.16089
5.38156
5.67546
5.07546
4.8562
5.59674
5.69674
4.6281
5.06743
5.65658
5.28913
4.90836
5.40861
5.41979
5.03125
5.19627
5.29129
5.26098
5.19291
5.11724
5.15365
5.33881
5.17264
4.75185
5.11003
5.32644
5.22894
4.84877
5.20014
5.36168
4.99185
4.8468
5.22339
5.11268
4.90476
5.06291
5.24848
5.08502
5.04483
5.03798
5.04514
5.12207
4.89306
5.03771
5.09759
5.06757
5.01798
5.10992
4.9984
5.09832
4.90556
5.04258
4.97458
5.12787
5.15082
5.0926
4.89627
4.67548
4.83982
4.94316
5.02817
5.15215
5.18251
5.16697
5.00512
5.04077
5.00132
4.87491
4.80523
4.87977
5.0055
5.07054
5.04153
5.1222
5.28954
5.48204
5.36554
4.79721
4.46276
4.57719
4.72565
4.83329
5.06769
5.15004
5.44218
5.5847
5.60445
5.55957
5.39847
5.15905
4.83407
4.512
4.24514
4.06784
4.11444
4.32454
4.6503
4.73695
4.74721
4.85097
4.89407
4.86832
4.92885
4.90125
4.95747
4.93672
4.94048
5.00449
4.85492
4.89003
4.87486
4.91741
4.96222
4.88057
4.98485
4.90795
4.85204
4.95493
4.95019
4.87611
4.9005
4.90255
4.85008
4.888
4.85503
4.8961
4.79276
4.82598
4.72989
5.0239
5.01668
4.96189
4.90032
4.91835
5.04246
4.95533
4.95504
4.96963
4.97227
4.95613
4.93574
4.99529
4.91842
4.88978
4.86896
4.99239
4.95437
4.93802
4.9323
4.88371
4.91849
4.74228
4.91349
4.93299
4.9446
4.96817
4.94743
4.96025
4.99985
4.96365
4.91335
4.99007
4.96156
4.91627
4.83396
5.02962
4.92587
4.90301
4.94084
4.85351
4.82556
4.90385
4.94879
4.87559
4.96469
5.0011
5.00463
5.04418
4.96136
4.95804
4.88772
5.01724
4.97089
4.96866
4.90988
4.91144
4.82825
5.00408
4.93474
4.90125
4.74063
4.9438
4.8447
4.90432
4.77182
4.90363
4.78551
4.94023
4.91526
4.864
4.95102
4.86737
4.91078
4.90795
5.00466
4.88506
4.88132
4.97708
4.89836
5.00651
4.88779
4.94475
4.97302
4.94522
4.98579
4.91867
4.90587
4.89964
4.88611
4.91589
5.04107
4.84848
4.90038
4.96903
4.80753
4.86571
4.7739
4.91792
4.92281
4.85812
4.89367
4.81726
4.83507
4.78099
4.93838
4.884
4.97097
4.90861
4.95987
4.98674
4.96421
4.95405
4.98169
4.94796
4.94344
4.9175
4.95629
4.96923
4.96497
4.94354
4.91925
4.8774
4.9004
4.87934
4.87166
4.88351
4.89117
4.86893
5.01894
4.92599
4.95809
4.88727
4.92696
4.99364
4.92911
4.96685
4.93109
4.90787
4.81468
4.90129
4.94616
4.95872
4.94208
4.96299
4.93283
4.8683
4.87855
4.93776
4.99969
4.93384
4.92598
4.90269
4.95648
4.8058
4.94833
4.89805
4.93355
4.83982
4.80306
4.90117
4.93384
4.93941
4.92271
4.86727
4.93506
4.91469
4.92972
4.9143
4.92029
4.86452
4.9125
4.7166
4.92291
4.86393
4.82282
4.91364
4.9565
4.88772
4.90535
4.92047
4.91998
4.95472
4.76243
4.87049
4.84472
4.851
4.92824
4.92986
4.97436
4.94489
5.0065
4.87908
4.89954
4.9506
4.9681
4.89378
5.01424
4.9582
4.89841
4.84004
4.93229
4.9231
4.68931
4.85979
4.89216
4.91935
4.71764
4.92783
4.93539
4.96298
4.95823
4.99997
4.96251
4.97155
5.04844
5.0032
4.87799
5.01173
4.92395
4.92309
5.02038
4.89098
4.93526
4.90704
4.71399
4.99345
4.94147
4.88192
4.93679
4.89931
4.92998
4.96651
4.903
4.90059
4.95639
4.94088
4.89348
5.01534
4.92443
5.01552
4.95555
4.95139
4.91848
4.93274
4.90112
4.91138
4.92293
4.98146
4.96604
4.93995
4.96936
5.00003
4.92986
4.87439
4.98439
5.04106
4.90811
4.88496
4.97153
4.92402
4.9335
4.97544
4.9042
5.00786
4.91788
4.73271
4.90129
4.9021
5.0084
5.01708
4.8466
4.82988
4.98851
4.81636
4.91123
4.84457
4.96428
4.92058
4.75443
4.8544
4.86503
4.91316
4.94148
4.87369
4.88405
4.95973
4.79152
4.93868
4.90396
4.87553
4.9368
4.90629
4.94179
4.87906
4.9319
4.90765
4.89584
4.84187
4.84285
4.95958
4.65783
1.14533
1.13767
1.10123
1.10246
1.11934
1.14277
1.14812
1.05111
1.04204
1.08007
1.0522
1.03928
1.02132
0.98887
0.987459
0.967961
0.917116
0.882698
0.849656
0.828606
0.821826
0.80875
0.777299
0.732281
0.703065
0.686511
0.660982
0.665851
0.678139
0.663159
0.639429
0.632458
0.626968
0.618989
0.598714
0.56268
0.546552
0.564877
0.603417
0.606477
0.625824
0.668865
0.668157
0.67734
0.727267
0.752696
0.761746
0.766254
0.744817
0.749453
0.807024
0.881145
0.936021
0.897789
0.83402
0.906905
1.06075
1.02838
0.983616
0.96791
1.31606
1.35716
1.15429
1.34723
1.22584
1.3468
1.36779
1.65222
1.57753
1.35595
1.62262
1.99066
1.5254
1.58601
1.72329
2.23571
0.558097
1.38608
1.39223
1.89005
1.50143
1.48053
1.57485
1.69833
1.75125
1.80143
1.71955
1.76354
1.6605
1.98909
1.57831
2.13839
2.07985
1.7873
1.66115
1.92104
2.20012
1.78891
1.92015
1.7685
2.22206
1.68771
1.7342
2.07671
2.01573
1.80503
1.61867
2.6115
1.89457
1.74867
2.11778
1.92156
1.43585
1.96507
1.91029
1.81633
1.73681
2.04136
1.81154
2.01861
1.65433
1.4474
2.22367
1.69245
1.88958
1.80212
1.9396
1.98855
2.19705
1.46108
1.95757
1.60594
2.2494
1.64955
1.79865
1.78077
1.99751
1.7764
1.47816
1.84904
2.09836
1.74832
1.90419
1.8982
2.06537
1.67687
2.05477
2.13911
1.86709
1.63481
1.6272
1.73227
1.71199
1.5121
1.57553
1.98375
2.44285
1.8408
0.138242
0.285156
0.177969
0.596
0.196957
0.922211
0.282219
1.25479
1.32205
1.62514
1.86608
1.77131
2.18895
2.18564
2.20708
2.20093
2.12704
2.0208
2.023
2.29837
2.0422
1.80252
1.99413
1.94655
1.8388
2.04273
1.86846
2.08786
1.9782
2.03735
2.29004
1.72864
1.98413
1.94711
2.07192
2.2207
1.88436
2.28897
2.04287
1.84296
2.21003
2.12084
1.96176
2.02805
1.98295
1.75246
1.94909
1.84457
2.02136
1.73924
1.88367
1.46041
2.38475
2.29305
2.10344
1.86349
1.88699
2.34615
1.99425
1.95313
2.01586
2.02154
1.96203
1.86906
2.0851
1.96664
1.86711
1.79485
2.2343
2.06579
2.06738
1.98745
1.95211
2.10919
1.53998
2.10174
2.10102
2.09279
2.20632
2.01187
2.12032
2.33688
2.10292
1.95847
2.1815
2.16893
1.95771
1.71141
2.32939
1.84365
1.87938
2.11415
1.84923
1.63565
1.93036
2.01451
1.76852
1.95017
1.99863
1.98973
2.23677
1.94724
1.9273
1.71478
2.23113
2.08877
2.08027
1.90183
1.90794
1.7373
2.30489
1.9889
1.93502
1.49464
2.18193
1.80738
1.97541
1.6195
2.12693
1.66718
2.13481
2.02319
1.81289
2.11156
1.7736
2.0395
1.96464
2.36014
1.92733
1.8787
2.16769
1.81246
2.18549
1.75065
1.91098
2.05018
1.87635
2.07156
1.93739
1.95227
1.90301
1.89932
1.8328
2.43397
1.71811
1.9463
2.18831
1.73712
1.98517
1.67463
2.09752
2.06733
1.89802
2.00587
1.80341
1.862
1.71127
2.04106
1.75743
2.02615
1.77102
2.00795
2.05002
2.01661
2.08471
2.07023
1.93793
1.89354
1.73155
1.91131
1.93026
2.0074
1.94426
2.01692
1.97045
2.00679
2.00043
1.97899
2.09194
2.06295
1.9166
2.31917
1.92199
2.04147
1.92243
2.02846
2.19499
2.02993
2.15615
2.02851
2.07917
1.78239
1.97572
1.98829
2.02531
1.96042
2.04796
2.08968
1.87239
1.86897
2.13302
2.23713
1.9876
1.91064
1.82664
2.01238
1.52749
2.03991
1.76578
2.15455
1.73374
1.73142
1.98991
1.9731
2.05579
2.03061
1.92232
2.08206
1.93695
1.97171
1.95023
2.02968
1.90907
2.13064
1.57682
2.08946
1.81798
1.65358
1.89402
2.03079
1.75824
1.80744
1.92153
1.96286
2.18302
1.64766
2.03362
2.01938
1.82974
2.00703
1.8803
2.0652
1.95211
2.12399
1.7437
1.90236
1.96979
2.08836
1.8791
2.30305
2.12487
1.92571
1.73926
2.09267
2.16195
1.44265
1.96383
1.95496
2.19426
1.58512
2.19238
2.04903
2.04543
2.14278
2.14506
2.00651
1.98958
2.32506
2.18495
1.76516
2.23283
2.01928
2.01382
2.38915
1.91841
2.01882
2.07257
1.44434
2.31471
2.07954
1.91562
2.04104
1.95145
2.05441
2.22257
1.9462
1.85854
2.06962
1.98257
1.88435
2.34145
1.92233
2.36105
2.0678
2.14934
2.08272
2.05396
1.90548
1.93266
1.85568
2.14602
1.97302
2.00725
2.08865
2.11257
1.8705
1.7232
2.14519
2.29486
1.84113
1.74843
2.08184
1.94282
1.98792
2.07935
1.95676
2.32041
2.07635
1.59168
2.0657
1.9075
2.34326
2.35881
1.76612
1.75349
2.37889
1.86655
2.09497
1.84392
2.24264
1.99407
1.56171
1.84572
1.88162
2.04719
2.13092
1.91383
2.08322
2.2674
1.63799
2.19984
2.07431
1.91922
2.10686
2.03088
2.16645
1.83785
2.10252
1.96979
1.89481
1.93763
1.91302
2.44914
1.715
1.16733
1.17113
1.20535
1.20431
1.18773
1.16822
1.1509
1.25452
1.27051
1.21779
1.24878
1.26852
1.27756
1.30056
1.29628
1.3115
1.35796
1.38302
1.40856
1.4248
1.41872
1.41369
1.4317
1.47065
1.49844
1.51056
1.53466
1.53416
1.51591
1.50833
1.51375
1.50452
1.48999
1.49054
1.511
1.54442
1.55545
1.5394
1.50469
1.49276
1.47186
1.42934
1.40953
1.37205
1.30631
1.28357
1.29172
1.30998
1.33611
1.31174
1.21817
1.12223
1.08021
1.10762
1.13854
1.04376
0.92241
1.01542
1.01475
0.927187
0.4223
0.308159
0.988513
0.652081
0.624673
0.425773
0.788693
0.500445
0.101358
0.59034
0.675707
0.119961
0.336364
0.750226
0.998997
0.149912
2.04449
0.567938
1.51207
1.39322
0.385882
1.08345
1.15976
1.71031
0.423687
0.780969
0.642293
1.82307
1.06495
0.390551
0.981913
0.931038
0.76052
0.597929
1.51545
0.981654
0.576753
1.15306
0.804113
1.22633
0.165831
1.20762
1.25504
1.39695
1.03052
0.879285
1.54761
0.28506
0.647001
0.853706
1.2102
1.58048
1.05588
0.73857
1.68098
1.21768
0.78798
0.949288
1.54632
0.912252
1.44411
1.67884
0.92665
1.67346
0.858633
1.21809
1.18394
0.962001
0.713028
1.85845
1.25158
1.70238
0.626629
1.69204
1.25802
1.57034
1.29192
2.13821
2.13419
1.53214
0.981397
1.62075
1.21776
1.45777
1.30302
1.89496
1.21466
1.12755
1.51096
1.70573
1.60693
1.43627
1.52315
1.76621
1.80561
1.24424
0.583907
0.716453
1.82836
2.3046
2.17127
2.42198
2.26585
2.55477
2.23725
2.61395
1.73374
2.47903
0.48382
2.26538
1.77256
1.87174
1.84119
1.78246
1.72563
1.81697
1.71351
1.06888
1.36943
1.72777
1.43345
1.58865
1.66121
1.20591
1.542
1.07332
1.3749
1.22642
0.893501
1.80911
1.22231
1.32067
1.24482
1.0382
1.61659
0.915479
1.37274
1.51829
0.939302
1.29514
1.23917
1.32563
1.47683
1.90994
1.45577
1.58343
1.36299
1.86409
1.54024
2.28777
0.872134
0.973497
1.1817
1.61852
1.62329
0.873369
1.35712
1.40845
1.24408
1.187
1.32916
1.52455
1.24364
1.19158
1.52746
1.66179
1.15564
1.38285
1.24079
1.56694
1.38374
1.22508
2.13225
1.26512
1.09032
1.3234
1.05504
1.60836
1.25404
0.751556
1.2046
1.34281
1.18792
1.08756
1.4382
1.84713
1.17061
1.95588
1.6259
1.22937
1.72102
2.25403
1.55756
1.4741
1.54571
1.43754
1.361
1.35626
0.879164
1.33196
1.52061
1.79853
0.998954
1.14946
1.18002
1.4823
1.53052
1.59442
0.950661
1.58136
1.62724
2.23575
1.13564
1.60666
1.54312
2.02652
1.15829
1.9935
1.33707
1.45277
1.71112
1.24266
1.84883
1.27627
1.51907
0.941227
1.35678
1.40884
1.03702
1.5831
1.09494
1.63069
1.48296
1.23752
1.54193
1.27627
1.32384
1.3001
1.4613
1.41993
1.90373
0.762227
1.93176
1.59409
1.316
1.89958
1.44806
1.94116
1.25228
1.32655
1.49413
1.40018
1.76026
1.61201
1.78192
1.3565
1.78562
1.26444
1.65649
1.25306
1.35045
1.29439
0.952793
1.26279
1.35067
1.47753
1.81233
1.50048
1.56998
1.33737
1.49925
1.31926
1.36973
1.58276
1.60143
1.66842
1.4192
1.353
1.47239
0.922271
1.56688
1.36353
1.45995
1.34201
1.28675
1.35653
1.05959
1.39511
1.2149
1.7152
1.43068
1.55489
1.36274
1.47333
1.37279
1.09534
1.42252
1.66145
1.08528
1.11206
1.34591
1.43374
1.5082
1.37694
2.05236
1.25544
1.87114
0.88959
1.92352
1.82257
1.36357
1.51927
1.27956
1.33195
1.4818
1.27333
1.4829
1.44385
1.48162
1.2909
1.40903
1.20242
1.99964
1.34695
1.61653
1.77857
1.53318
1.27916
1.74964
1.69139
1.37211
1.33737
1.10825
1.9816
1.45563
1.41697
1.78262
1.34076
1.6033
1.24884
1.49425
1.37084
1.80531
1.37977
1.50192
1.22881
1.44588
0.975161
1.22921
1.62171
1.79915
1.34546
1.14312
2.28759
1.46746
1.56521
1.18128
2.05538
1.15455
1.41042
1.41759
0.937151
1.1308
1.28209
1.37445
0.807257
1.13404
1.77003
1.38677
1.47428
1.40827
0.846086
1.54239
1.46785
1.27716
2.26713
0.963341
1.44175
1.50613
1.61282
1.57883
1.30297
0.973905
1.33381
1.58768
1.37868
1.47972
1.55363
0.828855
1.69557
0.804659
1.46855
1.20676
1.23661
1.45882
1.66366
1.51382
1.6938
0.992369
1.46812
1.12312
1.13675
1.20309
1.56683
1.68912
1.03548
0.977017
1.67616
1.79212
1.23118
1.32766
1.25188
1.30997
1.31469
0.856787
1.36107
1.98061
1.32973
1.5693
0.823938
0.827526
1.75388
1.84551
0.960926
1.69162
1.34917
1.67142
1.12711
1.68802
2.21182
1.74082
1.69031
1.33476
1.29701
1.61987
1.1951
1.02214
2.07144
1.07321
1.25372
1.4947
1.32453
1.23535
1.08477
1.70848
1.2333
1.36778
1.76765
1.34417
1.63429
0.891642
1.9741
0.879288
0.882656
0.873677
0.861764
0.865291
0.891612
0.880913
0.868116
0.871354
0.846593
0.855876
0.867322
0.852564
0.834836
0.828417
0.837867
0.838256
0.817663
0.8042
0.808642
0.80371
0.783809
0.77496
0.780527
0.783252
0.781976
0.803421
0.80845
0.813816
0.789169
0.761397
0.719968
0.67443
0.659935
0.667723
0.686141
0.668394
0.629488
0.583736
0.567557
0.57553
0.558887
0.495878
0.412395
0.360289
0.365343
0.388609
0.42511
0.41513
0.372312
0.2721
0.224327
0.275231
0.139576
0.0942538
0.184776
0.35392
0.26452
0.144023
0.020448
0.639282
0.0333956
0.541211
0.826409
0.337753
0.439383
0.864783
1.32333
0.335418
0.087727
1.27091
1.49604
0.31724
1.13471
1.04157
0.478202
0.806055
0.39334
0.689808
0.39829
0.613691
1.12951
0.453392
0.107997
1.06872
1.43231
0.295124
0.95539
1.98887
1.4308
1.07723
0.988595
1.65689
0.15839
0.0108225
1.21111
1.83468
0.688411
1.33057
0.105168
1.75827
0.127016
1.33205
0.578518
1.87911
0.220354
1.78773
1.96305
0.554309
0.936313
1.07012
0.223634
0.467106
1.38539
0.525007
0.406657
0.962816
1.25327
0.714362
1.02849
0.71305
0.863508
1.49017
0.341749
1.37811
0.789173
1.18768
1.17883
1.13198
0.125101
1.11473
0.426566
1.58717
0.565668
1.01607
0.655097
1.36595
0.387014
0.720353
1.23498
1.50659
0.295796
1.18367
1.05329
1.35464
0.57421
1.24417
1.1151
0.495284
0.17788
0.364124
0.753109
0.821714
0.475085
0.185148
0.793859
1.56344
1.73008
1.41354
1.46657
0.947544
1.71342
0.925073
1.98581
0.936383
1.90942
0.785116
1.77151
0.821192
2.29399
1.32181
1.79518
1.68597
1.79837
1.6798
1.28796
1.18833
1.95334
1.33845
0.773316
1.04783
0.837475
0.614038
1.2872
0.777466
1.64473
1.02216
1.301
1.5895
0.645525
1.26477
1.2322
1.22936
1.48142
1.07064
1.95226
0.977528
1.16137
1.94854
1.0979
1.40867
0.988379
0.785509
0.141974
0.815118
0.772475
1.17114
0.426129
1.07266
0.0198137
1.78787
1.61484
1.43819
0.73331
0.826711
1.68867
1.12847
0.96833
1.15701
1.19413
1.03462
0.725334
1.21066
1.43393
0.945973
0.84766
1.25981
1.04967
1.27438
0.765361
1.15439
1.35692
0.167203
1.34602
1.86362
1.02402
1.6193
0.855037
1.3611
1.9625
1.37648
1.34706
1.39792
1.47197
1.22869
0.583802
1.29379
0.455391
0.998047
1.44909
0.879416
0.15909
1.18019
1.00654
1.00105
0.881736
0.86503
0.999344
1.6001
1.05414
0.812512
0.602601
1.53821
1.37476
1.39139
0.897317
0.987594
1.01323
1.61965
0.807694
1.06307
0.438928
1.69315
1.10456
1.00899
0.276507
1.43228
0.234405
1.13854
0.967095
0.74328
1.41863
0.541464
1.36229
1.06947
1.63214
1.48438
1.41955
1.55316
0.909037
1.24611
0.786198
0.905138
1.03344
0.92515
1.23734
1.39007
1.44746
1.23268
1.26473
0.473902
1.97185
0.595493
0.940064
1.27612
0.552049
1.22016
0.469524
1.43801
1.26455
1.15148
1.23276
0.33141
0.817794
0.688032
1.25554
0.519424
1.3393
0.917456
1.29676
1.02132
1.21856
1.79569
1.05694
1.17381
0.908126
0.492776
0.879749
0.680339
1.02681
0.929755
0.994567
1.18315
0.921993
0.875228
0.926124
1.27652
1.29994
1.02061
1.64785
0.766288
1.16265
1.00193
1.20193
1.20449
1.11549
1.60665
1.10009
1.34725
0.858339
1.14076
0.755859
0.967062
0.790593
0.908702
1.29522
1.21155
0.257116
1.35371
1.37697
1.20476
1.06374
1.01203
0.924496
0.253238
1.37312
0.67188
2.07558
0.559164
0.658615
1.2381
0.881557
1.07321
1.06848
0.942711
1.18538
0.970139
1.03751
0.880372
1.24481
1.18252
1.61683
0.722856
1.44604
1.11487
0.716952
0.823469
1.07307
0.545395
0.704759
1.32423
1.30055
1.51369
0.540529
1.24281
1.33707
0.793382
1.27986
0.83408
1.19333
0.861376
1.16436
0.812133
1.44061
1.11626
1.33338
1.04969
1.59111
1.39074
0.827879
0.729566
1.12289
1.73968
0.407432
1.28471
1.09531
1.47824
0.524838
1.60819
1.17625
1.10704
1.81064
1.44062
1.24941
1.10666
1.88485
1.44184
0.885974
1.1364
1.09292
1.33081
1.90392
1.01911
1.09758
1.40826
0.277778
1.83544
0.929774
1.34797
0.891664
0.92669
1.35316
1.6162
1.38139
1.03029
0.824743
1.07524
0.971613
1.97777
0.78718
1.80943
0.815534
1.24646
1.44951
1.09069
0.76966
0.950221
0.590749
1.56895
0.947145
1.48017
1.30586
1.15443
0.923084
0.959577
1.60264
1.53807
0.714195
0.623293
1.36153
1.22062
1.32422
1.33346
1.36019
1.97132
1.51772
0.866871
1.39887
1.17447
1.86373
1.92222
0.857733
0.759774
1.70809
0.637706
1.28823
0.73752
1.2708
0.722535
0.0244279
0.857763
0.749261
1.24244
1.19738
0.805169
1.44453
1.87953
0.355675
1.50067
1.13115
0.924876
1.04132
1.44842
1.45081
0.737158
0.921082
1.09856
0.628202
1.51642
1.03378
1.99507
0.713231
0.659337
0.664472
0.677038
0.659084
0.654048
0.668908
0.650963
0.681171
0.701406
0.648793
0.666244
0.681053
0.662785
0.646438
0.624039
0.641444
0.651652
0.587915
0.509207
0.502977
0.499027
0.436146
0.360253
0.28079
0.214036
0.112251
0.121101
0.249527
0.0135673
0.285261
0.323748
0.366387
0.392181
0.388412
0.358326
0.331382
0.406814
0.474582
0.513204
0.491091
0.438188
0.492111
0.5418
0.550721
0.526302
0.509257
0.453281
0.464212
0.391146
0.451964
0.431359
0.418268
0.525208
0.400746
0.488874
0.390962
0.349603
0.248979
0.600445
0.207892
0.496328
0.41154
0.816623
0.72602
0.379989
0.0207271
1.06656
0.722302
0.863639
0.287074
1.16519
0.716363
0.374904
0.821176
0.899296
0.162995
1.0115
0.347245
2.11269
0.401454
0.960997
0.456587
1.60747
0.0859017
0.103117
0.600034
1.44142
0.378453
1.56151
0.106202
1.28907
0.226534
0.823329
0.593907
0.863328
0.165263
0.831688
0.530139
0.169631
0.209663
0.784558
0.338382
0.469413
0.0771988
0.766919
0.154045
0.118822
1.14353
0.00889825
0.769644
0.92562
0.755112
0.0688462
0.401211
1.52418
0.179532
0.010601
0.776485
1.12172
0.57425
2.07856
0.611556
0.235144
1.66476
0.887335
0.260566
0.093795
0.465671
0.971974
2.17014
1.0675
0.72092
0.16485
2.53984
0.490173
1.17302
0.241259
2.16934
2.07957
0.92699
1.93138
1.40648
0.407892
0.892194
0.665534
1.45123
0.570827
0.57764
1.1276
1.33549
1.27601
1.05549
1.0267
1.27142
1.48042
1.2997
0.985219
0.978451
1.45556
1.27474
1.65531
1.6339
1.81975
1.83989
1.76139
1.5648
1.71498
1.0155
1.67121
1.85812
1.57144
1.74957
1.68406
1.31086
1.19235
1.61862
1.62264
0.30723
0.914618
1.41655
1.13075
1.18499
1.50915
0.695145
1.26168
0.155248
1.21807
0.483613
0.337432
1.22207
0.699902
0.485745
0.549843
0.59716
0.817085
0.347639
1.38822
0.956924
0.145812
1.02231
0.0549113
0.920914
1.2236
1.6311
1.05732
1.33163
0.875409
1.737
0.992523
2.42603
0.29604
0.336048
0.438022
1.60326
1.48351
0.495035
1.03036
1.14085
0.796137
0.899538
0.785769
1.17402
0.487819
0.496924
1.1471
1.27445
0.77726
1.08071
0.978677
1.51727
1.03877
0.796547
2.17289
0.711572
0.0263798
1.24115
0.518004
1.47132
0.900946
0.388817
0.95145
0.851331
0.930377
0.662831
0.917217
1.90818
1.2611
2.04088
1.40601
0.82733
1.50871
2.16407
0.931052
1.20471
1.09393
1.0204
1.16807
1.0943
0.859891
1.29791
1.34706
1.46792
0.420551
0.69728
0.648915
1.31685
1.18101
1.11642
0.578334
1.28967
1.16406
2.61962
0.50881
0.980298
1.14352
1.97086
0.528035
1.87868
1.08198
1.24711
1.51792
0.681759
1.79056
0.842756
1.13968
0.69973
0.665431
0.506457
0.36844
1.08883
0.877639
1.35959
1.18933
1.13636
1.06738
0.692538
0.563368
0.505783
0.724904
0.742121
1.90633
0.504029
1.86159
1.37354
0.988064
1.83849
1.0081
1.97137
0.678088
0.968687
0.94334
0.70288
1.07804
1.26165
1.85035
0.723068
1.48452
0.610257
1.01828
0.673281
0.943306
0.796605
0.158486
1.19773
0.790203
1.04676
1.54927
0.997781
1.37004
0.934459
0.919814
1.16698
0.725943
1.30766
1.37367
1.23033
1.98858
0.759549
1.15528
0.299361
1.22572
0.830198
1.33858
1.1141
1.08376
1.04337
0.306832
0.720567
0.870131
2.05984
1.06228
1.40105
1.02627
1.26492
1.12204
0.768983
0.206143
0.72214
0.523085
0.819579
0.814918
0.903697
0.787656
1.10544
1.40168
0.409509
1.25736
0.232739
1.90357
1.91322
0.776736
0.99054
0.989271
1.00971
1.72006
0.836036
1.06208
0.853638
1.43857
0.837517
1.10558
0.663543
2.51103
0.757922
0.670355
0.89499
1.10335
0.982494
1.4868
1.34232
0.454162
0.618365
0.580154
2.26751
1.10436
1.93882
1.37632
0.775778
1.2092
0.891905
1.45059
1.14365
1.31974
0.582584
0.889515
0.87735
1.44159
0.339687
0.557967
1.21618
1.22069
1.0362
0.518014
2.81077
1.01716
0.977275
0.725822
2.46408
0.551255
0.902544
1.0048
0.0574257
0.56513
0.68252
0.898483
0.0131714
0.814771
1.55624
1.40788
1.44305
1.04926
0.669988
1.36658
0.953746
0.794102
2.42859
0.243571
1.43622
0.67033
1.53462
1.39861
0.674628
0.349734
0.524675
0.709547
1.26076
0.689839
1.18805
0.366536
1.35548
0.0904301
1.28153
1.03783
0.636789
1.31194
1.46146
0.971095
1.62829
0.37307
1.01758
0.607054
1.02157
1.13337
1.02754
1.00827
0.545255
0.476989
1.25568
1.46769
0.534007
0.955431
0.742532
0.546308
0.696643
0.202762
0.737666
2.40017
0.849634
0.847971
0.45149
0.106987
1.34676
1.60335
0.675813
1.56869
0.556667
1.48609
0.889041
1.37814
2.10096
1.39693
1.67195
0.789789
0.579404
1.31258
0.620132
0.0646767
2.0514
0.660708
0.737278
1.30585
1.16312
0.259121
0.54072
1.20155
1.17558
1.03672
1.3016
0.375914
1.12208
0.0922343
2.35846
0.0683098
0.0255621
0.0053474
0.145948
0.155782
0.011005
0.108031
0.109965
0.0758095
0.273758
0.108468
0.147242
0.232607
0.299743
0.347119
0.300047
0.371224
0.513075
0.564823
0.552911
0.582515
0.646239
0.713299
0.750024
0.77627
0.778568
0.767827
0.783666
0.811105
0.840864
0.849123
0.87289
0.900148
0.865727
0.856094
0.856143
0.857079
0.923999
0.89731
0.824575
0.896216
0.87351
0.91301
0.859943
0.890182
0.814563
0.851915
0.812546
0.871719
0.71124
0.840373
0.879948
0.732172
0.863711
0.875391
0.890813
0.736815
0.710858
0.690395
0.82235
1.08636
0.709503
0.757114
0.777313
1.2158
0.406426
0.692088
0.633333
0.846813
0.569627
0.917158
0.561552
0.390691
0.882107
0.392607
0.185544
0.94235
0.608937
1.39462
0.0634556
1.30739
0.322952
0.800812
0.887651
0.158268
0.858543
1.31304
1.35865
0.106188
0.399341
1.28646
0.00570032
1.23408
0.869852
0.700816
0.100349
0.356691
0.35433
1.28349
0.382331
0.190002
0.427966
0.951252
0.490057
0.0887923
0.351632
0.576173
0.916683
0.260275
1.11598
0.590665
0.264816
0.801131
1.42961
0.24828
0.601946
1.17045
2.01796
1.41019
1.13597
1.44799
0.344844
1.36835
0.793527
0.845753
0.184783
0.952108
0.902847
1.20375
1.13366
1.00095
0.0113657
1.69293
1.93391
0.235472
0.200313
0.276329
1.10116
1.46678
1.13962
2.13613
0.854828
0.506829
0.466089
0.99068
0.16494
1.03454
0.850078
0.442328
0.425208
0.645146
0.858246
0.79029
0.484815
0.502109
0.89687
1.4143
1.5718
1.52904
1.21662
1.47972
1.52282
1.54586
1.79148
1.25984
1.91925
0.670724
1.99386
1.13854
2.115
1.19019
1.71562
1.34158
1.67842
1.79437
1.02723
0.779421
2.11688
0.971122
0.446384
0.806306
0.839946
0.163112
1.08339
0.853044
2.06894
0.281031
1.48461
1.47815
0.228651
0.955195
1.04208
0.961778
0.587099
1.56513
2.85208
0.114144
0.996328
2.33199
0.50717
0.757064
0.633822
0.355608
0.983231
0.492392
0.103422
0.869208
1.43638
0.919568
1.90532
1.83884
1.54298
1.19817
0.103505
0.456791
1.94786
0.827734
0.478768
0.613278
0.459497
0.947638
0.522648
0.946598
1.0547
0.583535
0.604529
1.44134
0.864715
0.916761
0.414828
0.95248
1.0809
1.51242
1.09269
1.91149
0.190011
1.11882
1.43796
1.38535
2.61264
0.998107
0.978908
1.64574
1.13523
1.05353
0.0241835
2.32041
0.390685
0.843761
1.47536
0.666715
1.27107
1.12095
0.584909
0.768836
0.838356
0.165418
0.510929
2.36174
0.425109
0.360981
0.723265
1.66314
1.09428
1.08219
0.231135
0.540302
0.845676
2.15864
0.888108
0.734012
2.09685
1.70107
1.35472
0.732655
1.49146
1.33162
1.31752
1.65512
0.558042
0.226313
1.28689
0.207231
1.07377
1.01901
2.1983
1.31817
1.41711
1.46911
0.562095
0.819686
0.289107
0.457335
0.44788
0.577336
1.26815
1.39887
1.00712
1.11018
1.25632
0.0998681
2.93969
0.517413
0.691784
1.60455
0.0639392
0.913098
1.51617
1.2094
0.935848
1.11843
1.17647
0.565616
0.264723
1.44539
0.927459
0.0878051
1.2002
1.08835
1.10571
0.536525
0.936881
1.64553
0.620097
1.10435
0.72497
0.0892484
0.949039
0.299961
0.660542
0.787681
0.282025
0.84586
1.35069
0.381948
0.553909
2.46877
0.956289
0.56525
1.39591
0.530803
0.895307
1.92035
0.826982
1.53015
0.460924
0.891711
0.856181
0.632885
1.84348
0.80693
0.756584
0.864503
0.175817
0.0129724
0.504439
1.76976
0.423927
1.47593
1.71935
0.987586
0.644509
0.777411
0.346234
0.115614
1.55266
0.890737
2.59806
0.186687
1.68307
0.912531
0.704264
0.380074
0.0828638
1.47651
0.829715
0.78451
1.05392
0.199221
1.25508
0.441778
1.0189
2.24493
1.12125
1.43401
0.432588
0.353702
0.728346
0.171437
0.304237
1.37904
1.09714
0.696717
1.70382
0.439335
2.27344
0.273294
1.02441
0.43995
1.07638
0.408782
1.92052
0.801373
1.76571
1.21461
0.906273
0.129961
1.29821
1.2797
0.288638
0.831901
0.374298
1.13849
2.31149
0.481544
0.792987
0.801203
1.96765
1.4147
0.893235
0.490817
1.56836
1.27128
1.20178
1.16019
2.28782
1.16536
0.316093
1.7975
0.695685
1.47527
2.93463
0.658762
1.07406
0.958416
1.23307
0.948456
0.0953465
1.41245
1.72965
0.50621
1.32258
1.56807
1.40648
1.12706
0.400453
1.17064
0.88858
2.77258
0.558162
1.75647
0.503253
0.368549
0.978065
1.79528
0.349755
1.08631
0.145434
1.41028
0.727933
1.19357
1.81719
0.723692
1.21102
1.30053
1.39475
1.12644
0.749953
0.34472
1.27868
0.56055
0.867306
1.31397
1.37355
2.35416
1.31302
1.68229
1.09574
1.46863
2.47641
2.22004
0.640862
0.450738
2.35418
1.12123
1.13892
0.0823359
0.768105
0.64525
1.60225
0.99882
0.361738
1.14793
0.806225
0.420236
1.31296
2.00042
1.47819
0.536449
0.842484
0.00825595
0.201155
0.830958
1.10693
0.790723
0.491798
0.300261
0.588058
1.96779
0.831409
1.43215
1.81563
0.57713
0.553572
0.553638
0.601874
0.582609
0.562558
0.588844
0.582757
0.572628
0.666623
0.630343
0.59846
0.617505
0.662476
0.71305
0.692993
0.684893
0.762503
0.794958
0.806859
0.823168
0.86823
0.815101
0.898505
0.932875
0.992696
0.92896
0.917477
0.965495
0.957391
1.12138
1.05376
1.02713
1.12668
1.0623
1.03481
1.14701
1.04903
1.07547
1.19594
0.951725
1.04575
1.02943
1.20182
0.984608
1.14773
0.889619
1.01353
1.08416
1.27026
0.998553
0.940724
1.14145
1.12261
1.2044
1.17535
1.02027
0.889999
1.02954
0.886948
1.18419
0.906049
0.985989
0.95252
0.603178
0.929257
1.27516
0.738324
1.04851
0.862078
1.22318
0.611634
0.755742
1.50931
0.357049
0.0210785
1.46544
0.927755
0.436034
0.418402
0.74234
0.976424
0.457225
0.874539
0.00861551
0.4165
0.919404
0.350203
0.392726
0.248494
0.650769
0.531172
0.895117
0.657519
1.03776
0.0593323
0.167736
0.402528
0.323624
0.21894
0.614406
0.268225
0.393058
0.413638
0.239393
0.721531
0.412424
0.742962
0.186719
0.814461
0.218725
1.22768
1.01098
0.607278
0.999654
1.1814
0.126853
2.01553
0.33139
0.628183
0.806934
0.788256
0.73837
1.00103
0.707688
0.31204
0.227109
0.538333
0.17742
0.649135
0.801629
0.843585
0.497226
0.826882
1.05726
0.718671
0.373081
0.835134
1.49616
0.692898
0.000743683
0.273609
0.324388
0.64704
0.191634
1.17486
0.318466
0.723782
1.09289
1.19011
1.11443
0.872699
0.758434
1.09332
1.39454
1.52821
1.34229
1.24055
1.09049
0.891351
1.59275
0.968675
2.13586
0.670129
2.316
0.457256
2.24439
0.773223
2.21833
1.2449
1.67383
1.59992
1.73698
1.17212
0.824715
1.86271
2.30181
1.40879
0.417954
1.06586
0.960551
0.864817
1.71393
0.668719
1.02372
1.88832
1.52373
0.105448
0.178952
1.67045
1.47276
0.113664
0.217328
0.286484
2.42044
2.56656
0.207741
0.59124
1.26132
1.34355
0.946011
0.61076
1.02072
1.45409
0.471794
0.651754
0.665073
1.28919
1.56278
1.05189
1.03096
0.932965
0.896061
2.41064
1.55554
1.14262
0.667685
1.34832
0.794572
0.996769
0.24455
0.447532
0.730946
0.237072
1.2283
1.12963
1.04734
0.880295
0.6696
1.19532
1.11596
0.416612
1.29251
0.591799
0.807646
0.756771
0.656176
2.0522
0.256075
2.26403
0.971021
0.659964
0.947777
0.601386
0.305001
1.62681
1.87932
2.33152
1.35225
0.625305
2.09179
2.09697
0.13852
1.00779
1.11808
0.154213
0.657894
1.00677
1.90861
1.1267
1.53013
2.32184
1.51138
0.265449
0.323117
1.21171
0.959906
1.12648
1.3191
0.0389488
1.43947
1.73621
0.119643
2.00069
1.1647
1.18612
0.139201
1.02299
1.81386
1.24976
1.66935
0.611294
2.13507
0.920254
0.665407
1.53137
0.158388
1.11957
0.921905
1.06435
1.23118
1.50662
1.16734
0.975544
0.926743
0.233964
1.12975
0.296526
0.334165
0.442062
1.87854
2.55217
2.40935
1.28244
1.16002
1.87426
0.90359
1.2606
0.347812
0.917329
1.40696
0.67263
1.094
1.28983
1.1528
0.533457
1.37329
0.535583
1.96397
0.629134
0.583628
0.360218
0.365453
0.841878
0.182748
0.735093
1.7857
0.523893
1.3243
0.90463
0.610113
1.34572
0.771189
1.57441
0.939919
0.758158
0.384867
0.65042
1.00597
0.622518
0.603994
0.267712
2.48801
0.687911
1.22383
1.03373
0.534203
0.105808
0.762205
1.37601
0.644327
1.76051
0.168616
0.924065
1.52151
0.362561
1.77042
1.38989
0.123213
1.13614
0.537163
0.633507
0.237336
1.19409
2.06298
0.231396
0.516933
1.14957
2.27629
1.49121
0.202406
0.292273
0.428285
0.534458
0.899536
0.252803
0.697853
0.578362
1.66693
1.73374
0.97759
0.560605
1.16414
0.842014
1.68116
1.31357
1.05271
0.659749
1.09323
1.25036
0.230059
0.0793255
0.0345954
0.996299
1.10013
0.967013
1.5903
0.648517
1.156
0.302892
1.08591
1.93229
0.971112
1.17072
0.619619
1.09089
2.08345
0.77267
0.0214241
0.922092
0.489917
0.993073
0.600939
1.00727
0.502928
0.264079
0.338433
0.834358
1.02039
0.621465
0.3655
0.199153
0.127231
0.326791
0.314392
1.81318
0.891304
1.62959
1.33054
1.23017
0.096017
2.7265
0.936046
0.339435
0.456948
1.80689
0.305372
2.04986
0.456671
1.90139
1.08064
0.170711
0.97486
1.07324
0.203628
1.57288
0.4899
1.24747
2.21845
0.863053
0.556759
0.296427
0.977378
0.0615658
1.42972