/*--------------------------------*- C++ -*----------------------------------*\
| =========                 |                                                 |
| \\      /  F ield         | OpenFOAM: The Open Source CFD Toolbox           |
|  \\    /   O peration     | Version:  v2012                                 |
|   \\  /    A nd           | Website:  www.openfoam.com                      |
|    \\/     M anipulation  |                                                 |
\*---------------------------------------------------------------------------*/
FoamFile
{
    version     2.0;
    format      ascii;
    class       volScalarField;
    location    "500";
    object      aU;
}
// * * * * * * * * * * * * * * * * * * * * * * * * * * * * * * * * * * * * * //

dimensions      [0 0 0 0 0 0 0];


internalField   nonuniform List<scalar> 
65536
(
0.000271054
0.000935192
0.000809123
0.00101916
0.000971398
0.00150086
0.0022497
0.0018278
0.000504125
0.000366342
0.000196158
0.000432495
0.00119454
0.00116649
0.000844738
0.00169021
0.00205076
0.00221758
0.00202703
0.00194162
0.0019913
0.00199566
0.00214915
0.00220685
0.00175307
0.00164144
0.0015598
0.000856605
0.000464951
0.00147669
0.00193326
0.00244601
0.00307756
0.00313542
0.00390206
0.00386395
0.00333378
0.00205402
0.00132387
0.00185403
0.000962607
0.00175221
0.00259567
0.00197759
0.00146841
0.00204094
0.00197816
0.00243004
0.00253528
0.00188435
0.00169663
0.000649767
0.00232951
0.00424094
0.00270981
0.00120124
0.00120084
0.00239115
0.00263085
0.00208459
0.0021754
0.00117912
0.00256534
0.00456654
0.00369934
0.00310641
0.00401361
0.00947264
0.00913724
0.0101712
0.0101107
0.0178144
0.0190498
0.0298517
0.0197227
0.0343929
0.0138994
0.0259563
0.00746584
0.0242003
0.0145713
0.032513
0.0309532
0.0396932
0.044496
0.0453699
0.0504438
0.0522115
0.0488549
0.0508661
0.0361427
0.0440485
0.0242612
0.028265
0.0192573
0.0140669
0.0130067
0.00878798
0.0153077
0.0259086
0.0286323
0.0432912
0.0375648
0.0550803
0.0422688
0.0594318
0.0460544
0.0594427
0.0401227
0.0532617
0.0397408
0.046173
0.0350484
0.0364003
0.035238
0.0310844
0.0337956
0.0255764
0.0369824
0.0279461
0.0338792
0.0228096
0.0342275
0.0273267
0.0274824
0.0252985
0.0240775
0.0324602
0.0126451
0.0243362
0.00880903
0.0201977
0.0187416
0.00851901
0.0205906
0.0162218
0.00995707
0.018205
0.0208678
0.0179019
0.021504
0.0275368
0.0263544
0.0212197
0.0222786
0.0263939
0.0254176
0.0234984
0.02275
0.0193332
0.0159048
0.0147472
0.0198183
0.0243573
0.0188874
0.0145126
0.0209735
0.0213741
0.010489
0.00950869
0.0124576
0.0110688
0.0149081
0.0116571
0.0141898
0.0220422
0.0246442
0.0225452
0.0170021
0.0111251
0.00687861
0.00509582
0.00379481
0.00250823
0.00201126
0.000778166
0.000229836
0.0010816
0.000394888
0.000797615
0.000593296
0.000289174
0.000558884
0.000539094
0.000594702
0.00055003
0.000464725
0.000255404
0.000107156
4.69714e-05
0.000158134
0.000247621
0.000553641
0.000413843
0.000897259
0.00057297
0.000559021
0.000671404
0.000640033
0.00022811
0.000937906
0.000742913
0.000261976
0.000576148
0.000462978
0.000647239
0.000949097
0.00120194
0.000707053
0.000418288
0.000564925
0.000919835
0.000411094
0.000552943
0.000500725
0.000363202
0.000329694
0.000773089
0.000912384
0.00073933
0.000627848
0.000268791
0.000972054
0.000403999
0.000396419
0.000119962
0.000440852
0.000524935
0.000576116
0.000466808
0.000471173
0.000324099
0.000555397
0.000928895
0.00115314
0.000742554
0.000395654
0.000302575
0.000709814
0.000204887
0.000389305
0.000471778
0.000764185
0.000585219
0.000683129
0.00104157
0.000796292
0.00102242
0.000612636
0.000522399
0.00071644
0.000324426
0.000665044
0.000590609
0.000906063
0.000655053
0.000539448
0.000438464
0.000187742
0.000367136
0.000835609
0.000477609
0.000565037
0.000398342
0.00051086
0.000200692
0.000619697
0.000247726
0.000928189
0.000292536
0.000557384
0.000470198
0.00125438
0.000777233
0.000531577
0.000129492
0.000538726
7.57683e-05
0.000782756
0.000446917
0.000802178
0.00020679
0.00042776
0.00048717
0.00057605
0.000581001
0.000768447
0.00035289
0.000877776
0.00032063
0.000745833
0.00090731
0.00115825
0.000672675
0.000408025
0.000277778
0.000621026
0.000300504
0.000817221
0.000418171
0.00044463
0.000398558
0.0003987
0.00041173
0.00100385
0.000733247
0.000592953
0.0002366
0.000196376
0.000160673
0.000259825
0.00061194
0.00129537
0.000231115
0.000791644
8.23517e-05
0.00083389
0.000219527
0.000376748
0.000643394
0.000492815
0.000549827
0.000369652
0.000554816
5.43816e-05
0.000287661
0.00022369
0.000311416
0.000213172
0.000261649
0.000953171
0.00124899
0.00026441
0.00069144
0.000364366
0.000373873
0.000617748
0.000520811
0.00012397
0.000641935
0.000220368
0.000785006
0.000658005
0.000662362
0.000368573
0.000898941
0.000535025
0.000566123
0.000645081
0.000480088
0.000739346
0.000331736
0.000630335
0.000241898
0.00019735
0.00035181
0.00049681
0.000789952
0.000934275
0.000509289
0.000508634
0.000232594
7.43519e-05
0.000155815
0.000333262
0.000435404
0.00065448
0.000207136
0.000446478
0.000582126
0.000688358
0.000481677
0.000685976
0.000670014
0.00024556
0.000314038
0.000137088
0.000177423
0.000610357
0.00116063
0.000634404
0.000608768
0.000487269
0.000464844
0.00104556
0.000528185
0.000233154
0.000522929
0.000991031
0.000531349
0.000408699
0.000295817
0.000582477
0.000542534
0.000292457
0.000283247
0.000189231
0.000292516
0.00057411
0.000606661
0.000455628
0.000118898
0.000529868
0.000614037
0.000772186
0.000854369
0.000298279
0.00028683
0.000387871
8.42702e-05
0.00046373
0.000331407
0.000383142
0.000519288
0.00053279
0.00068442
0.000707045
0.00063758
0.000656604
0.000617804
0.00051789
0.000116695
0.000367984
0.000440783
0.000169617
0.000561586
0.000591
0.000794333
0.000578555
0.000508565
0.000644876
0.000707429
0.00088461
0.000135942
0.00121296
0.000501198
0.000201613
0.00056458
0.000327261
0.000631536
0.000367977
0.000770398
0.000555145
8.36339e-05
0.000206273
0.000136782
0.000478362
0.000542912
0.000758851
0.00021595
0.000588715
0.000604903
0.00106949
0.00103107
0.000654452
0.000781186
0.000505361
0.000685415
0.000860061
0.000387557
0.000150984
0.000218818
0.000568382
0.000702331
0.000304414
0.000955661
0.000462498
0.000544075
0.000204302
0.000682458
0.000298451
0.000568921
0.000387683
0.000518953
0.000729772
0.000307104
0.000605964
0.00044141
0.000258299
0.00026671
0.000938373
0.00130023
0.000315592
0.00052457
0.0010066
0.000636887
0.000276685
0.000344158
0.000311928
0.000942802
0.000543092
0.000857912
0.00130509
0.00061099
0.000324719
0.000447378
0.000594216
0.000597718
0.000618956
0.000397751
0.000661227
0.000561709
0.00078923
0.000898371
0.00112932
0.000518988
0.00164378
0.000904065
0.00043951
0.000338695
0.000383518
0.00123899
0.00075109
0.000590633
0.0016416
0.000931878
0.000923136
0.00108487
0.00105479
0.00182219
0.00148692
0.000251739
0.000330577
0.000862924
0.000659025
0.000227318
0.000619221
0.000966203
0.000162496
0.000487865
0.00060585
0.0010086
0.00102289
0.000510896
0.000276172
0.000723022
0.000741851
0.000300863
0.000803907
0.000819964
0.00154503
0.00118789
0.000741194
0.000909725
0.000690585
0.000634622
0.00059696
0.00157338
0.00211142
0.00133126
0.000780582
0.00111817
0.00142749
0.00150703
0.00228345
0.00251078
0.00151489
0.000782082
0.000481442
0.000462007
0.000882335
0.00133542
0.000294239
0.00224054
0.00229284
0.00182337
0.00428492
0.000951148
0.00200941
0.00132955
0.00333215
0.00381217
0.00123369
0.00289069
0.00253452
0.00460135
0.00650883
0.00399262
0.0069056
0.00573414
0.0116872
0.00517684
0.0146641
0.00362552
0.0259056
0.0110348
0.0432344
0.0114462
0.0478533
0.00949455
0.0377113
0.00945269
0.0297267
0.0131341
0.0170737
0.0344731
0.0116925
0.0509609
0.0256626
0.0510909
0.0436059
0.0387192
0.05458
0.0177293
0.0519451
0.0169671
0.0362
0.0218894
0.0166288
0.0159916
0.00758706
0.00865722
0.0190738
0.00982676
0.0420884
0.0190829
0.0560399
0.0190493
0.0642338
0.0130017
0.0615676
0.0112912
0.0586643
0.0138942
0.0446552
0.0310435
0.0391182
0.0303651
0.027189
0.0346149
0.0240536
0.030153
0.0187997
0.0314099
0.0211886
0.0238543
0.0184319
0.0222967
0.0240392
0.0139329
0.0262763
0.00359521
0.0262802
0.0151666
0.0178939
0.0213445
0.00769503
0.0145634
0.023722
0.027953
0.0196975
0.011374
0.0143665
0.00572187
0.00986416
0.0207304
0.024374
0.0224385
0.0178883
0.0122735
0.00556463
0.0105957
0.0121094
0.00458932
0.011561
0.0148893
0.00790016
0.00922851
0.0136673
0.0056857
0.0150867
0.0161097
0.00593845
0.00938525
0.0097322
0.00790613
0.00812862
0.00891879
0.00663054
0.00666434
0.00689653
0.00581423
0.00357437
0.00179766
0.00155146
0.00103507
0.00120265
0.00109861
0.00048713
0.000373905
0.000557655
0.000112081
0.000672465
0.000498351
0.000388823
0.000416128
0.000433952
0.000397917
0.000254795
0.000863091
0.00036358
6.17659e-05
7.17829e-05
0.000544343
0.000274004
0.000394565
7.75685e-05
0.000678168
0.000709867
0.000715281
0.000324145
0.00033962
0.000270807
0.00056381
0.00058047
0.000231405
0.000683142
0.000311955
0.000646403
0.000707262
0.000598557
0.000792163
0.000524392
0.000417619
0.000551068
0.000472934
0.000836403
0.00012136
0.000477565
0.000305878
0.000983917
0.000829887
0.000558498
0.000642471
0.000399824
0.000245726
0.000406157
0.000978048
0.000211783
0.000713576
0.00082775
0.000554193
0.0010906
0.000760032
0.00037306
0.000850526
0.000656566
0.000522224
0.000417719
0.000771584
0.000379013
0.000619129
0.000210705
0.00114015
0.000456381
6.7215e-05
0.000484271
0.000583773
0.00143542
0.000253095
0.000817893
0.000894482
0.000145963
0.000796985
0.000136226
0.000874037
0.000360675
0.0010504
0.000283345
0.000117056
0.00054072
0.000958631
0.000278756
0.000371806
0.00032219
0.000892502
0.000266472
0.000499082
3.25219e-05
0.000456428
0.00141963
0.000999012
0.000441873
0.000972239
0.000186492
0.000397893
0.000726704
0.000741156
0.000233765
0.000253933
9.14754e-05
0.00107485
0.000339411
0.000664375
0.000439299
0.000655903
0.000520768
0.000410863
0.000272228
0.0010698
0.000371637
0.00132582
0.000609579
9.373e-05
0.000692944
0.000763141
0.000655271
0.000739158
0.00038486
0.00020766
8.73558e-05
0.000113374
0.000875611
0.00022919
0.000234879
0.000327181
0.000461686
0.000839099
8.71732e-05
0.000141626
0.00042096
0.00034613
0.00024082
0.00109612
0.000809224
0.00130462
0.000462773
0.000347727
0.000209264
0.00111882
0.000997964
0.00109191
0.000938785
0.000599284
0.000431912
0.00111526
0.00100652
0.000294594
0.000261357
0.000709584
0.000932526
0.00115626
0.000905215
0.00106504
0.000866343
0.000981292
0.000231396
0.000428112
0.000822563
5.00887e-05
0.000833942
0.000899334
0.000802319
0.000246273
0.000906817
0.000461606
0.00132204
0.000544317
0.00142813
0.000788815
0.000464757
0.000822412
0.000530734
0.000657193
0.000391569
0.000380098
0.000547595
0.000373373
0.000690614
0.00101371
0.000242161
0.000194588
0.000611444
0.000843839
0.000289784
0.000520755
0.000165628
0.000236266
9.3895e-05
0.000588545
5.38725e-05
0.000653149
0.000557685
0.00115095
0.000943941
0.000521279
0.000273088
0.00015159
0.000382741
0.000327742
0.000996287
0.000480667
0.00109141
0.000233019
0.000249654
0.000957829
0.000199448
0.000227968
0.000887097
0.000467666
0.000278698
0.000362565
0.000914775
0.00108407
0.00138876
0.00033931
0.000508255
0.000443206
0.000205055
0.000373657
0.000186763
0.000286577
0.000249463
0.000305262
0.000698821
0.000844841
4.09694e-05
0.000724722
0.000977498
0.000492184
0.000611571
0.000708957
0.00122645
0.000717034
0.000726714
0.00016187
0.000463731
0.00063389
0.000348834
0.00075833
0.000177769
0.000320928
0.000241763
0.000649929
0.000414031
0.000234625
0.000327227
0.00059668
0.000627349
0.000512006
0.000770644
0.000301459
0.000144575
0.000526691
0.000422685
0.0006191
0.00126187
0.00101964
0.000502647
0.000852198
0.00109984
0.00029641
0.00108931
0.000197141
0.000344613
0.000514144
0.000191932
0.000181548
0.000247006
0.000548338
0.000299449
0.000174185
0.000489783
0.000454813
0.000571364
0.000890201
0.000295711
0.000490652
0.00042717
0.00092966
0.000493586
0.000593608
0.000245887
7.79299e-05
0.000636633
0.000744722
0.000537144
0.00042552
0.000970826
0.00030834
0.000130326
0.000706831
0.00107511
0.000815905
0.000273569
0.000329639
0.000568285
0.000365959
0.000394513
0.000170499
0.00161669
0.00112752
0.000599554
0.0015995
0.00116376
0.00141637
0.000751509
0.000845896
0.000629353
0.000244861
0.000824835
0.000569952
0.00131525
0.00138055
0.000997955
0.000886864
0.000508256
0.00041711
0.000275369
0.000663826
0.000367028
0.000730526
0.000324877
0.000903682
0.0010391
0.00117585
0.000598129
0.000790431
0.00112596
0.00124059
0.000311888
0.00075992
0.000987191
0.00232145
0.000343273
0.00120734
0.000146432
0.000372592
0.000895722
0.00104033
0.00234126
0.00129609
0.000534715
0.00147916
0.00148163
0.000672811
0.000107542
0.000561756
0.000469554
0.000562816
0.000663622
0.000413028
0.000453577
0.000407612
0.00060826
0.00105614
0.000913498
0.00039531
0.000540349
0.000890464
0.00149153
0.00128165
0.000238488
0.00122387
0.00174823
0.00252779
0.0020927
0.00191111
0.00161105
0.00141159
0.0011173
0.000366906
0.000203779
0.000611101
0.00103068
0.000204931
0.00129281
0.000617159
0.0016499
0.0012253
0.000682034
0.00139739
0.00266488
0.00237681
0.00219441
0.0017665
0.00316263
0.00462942
0.00149897
0.0041106
0.000916123
0.0052361
0.00305287
0.00231912
0.0035636
0.0041645
0.00482656
0.00268624
0.00816991
0.00515581
0.00950459
0.0020021
0.015981
0.00099508
0.0147299
0.00965963
0.0167013
0.0267657
0.0175362
0.0519336
0.0210402
0.0568794
0.0136257
0.0495326
0.0202687
0.0285703
0.014604
0.0266303
0.0172935
0.0459138
0.0456319
0.0431463
0.0702801
0.0143849
0.0736847
0.0259544
0.0526351
0.0469974
0.0192084
0.0386294
0.00495156
0.0110099
0.00707057
0.0132788
0.0111683
0.0075397
0.033986
0.0186433
0.0506371
0.0272706
0.0490398
0.0413598
0.0351404
0.0461451
0.0195482
0.0528035
0.00586379
0.0432137
0.0233561
0.0453284
0.0161042
0.0307324
0.0237568
0.0265421
0.0195675
0.0217365
0.0239504
0.0229685
0.0133217
0.0171417
0.0174303
0.0254779
0.00142279
0.0236013
0.0142662
0.0103817
0.0199266
0.0116424
0.00669066
0.0220324
0.0304991
0.0175692
0.0151485
0.0386404
0.0328327
0.00859571
0.0176777
0.0258835
0.0278074
0.0243561
0.0202948
0.0254061
0.0357921
0.0321335
0.00933751
0.0198941
0.0305889
0.0208887
0.00655412
0.00641535
0.0115566
0.0183134
0.0149149
0.00926539
0.0147169
0.00753257
0.00652949
0.00454547
0.00603011
0.00849898
0.00420949
0.00800073
0.00969455
0.00711427
0.00376875
0.00182294
0.00148674
0.000987191
0.0010473
0.000802367
0.000398619
0.00067595
0.000450776
0.000823298
0.000596592
0.000914798
0.000439407
0.000514615
0.000199439
0.000403562
0.000962303
0.00075485
0.000824667
0.000138272
0.000374271
0.000475176
0.000483306
0.000800792
0.000168906
0.000260576
0.000630904
0.00124523
0.000315523
0.000354828
0.000335726
0.000387992
0.000470988
0.000269123
0.000518393
0.000526234
0.00068559
0.000233941
0.000506355
0.000879098
0.000393355
0.000495991
0.000836665
0.0011407
0.000724641
0.000797335
0.000183982
0.000820206
0.000547122
0.00068546
0.000573967
0.00106937
0.00101768
0.000490278
0.000966374
0.00115043
0.00121612
0.00105633
0.000813531
0.00140027
0.00157234
0.00131905
0.000715274
0.000599402
0.000565106
0.000512828
0.000760873
0.000977692
0.000731521
0.000734847
0.00117444
0.00111212
0.00110574
0.000556535
0.00088706
0.00157736
0.00125678
0.00146795
0.000716741
0.00122199
0.00103698
0.000830061
0.000922144
0.000651962
0.00109756
0.000560028
0.000566711
0.000275058
0.000880013
0.000985164
0.000631139
0.000461607
0.000573003
0.000921612
0.000971668
0.000311988
0.000290838
0.00133296
0.00173536
0.00192097
0.000907688
0.000123179
0.000650713
0.0003098
0.000688801
0.000676987
0.000780832
0.000313073
0.00077571
0.000429786
0.00122718
0.000707337
0.00105209
0.000595309
0.000777301
0.000532569
0.000836688
4.85256e-05
0.00143883
0.000813442
0.00135927
0.000758356
0.000896895
0.000863232
0.000695069
0.00141949
0.000771631
0.000193122
0.00011107
0.000632472
0.000708809
0.000540282
0.000349393
0.000817293
0.000959579
0.00130383
0.00039442
0.000114529
0.000887628
0.000673659
0.00100194
0.00150756
0.00130567
0.00115232
0.00114598
0.000411477
0.000887451
0.00118018
0.00178525
0.00153302
0.00102851
0.000851332
0.0014239
0.00133168
0.00131325
0.000886059
0.000624868
0.000778691
4.20841e-05
0.000957177
0.00190122
0.00136352
0.000455103
0.000926082
0.00064523
0.000467258
0.000815209
0.000944627
0.00113574
0.00108212
0.000942963
0.000976872
0.000610174
0.000672744
0.00057829
0.0018282
0.000908657
0.00157224
0.00122275
0.00142372
0.00108384
0.000473677
0.000658018
0.00083738
0.00046675
0.000586783
0.0012249
0.000988409
0.00066105
0.000343465
0.000847948
0.00106169
0.000322017
0.000172799
0.00010853
0.00047439
0.000460981
0.000387757
0.000764226
0.000280267
0.000685068
0.00117149
0.000953292
0.000733657
0.000247357
0.000128199
0.000415904
0.00134214
0.00135546
0.00127897
0.00115482
0.000325578
0.000831295
0.00096406
0.000467599
0.000712413
0.000943007
0.00095623
0.000414606
0.00017802
0.000816255
0.00196927
0.00102158
0.000763869
0.000581211
0.000814319
0.000412069
0.000206447
0.000317702
0.000137774
0.000321687
0.000579691
0.00118071
0.00110697
0.000906194
0.000994425
0.000888996
0.000182503
0.000835939
0.0017639
0.00146603
0.000819453
0.000617093
0.000614519
0.000503965
0.000361946
0.00139342
0.000779141
0.000869226
0.000613848
0.000355337
0.000375982
0.000617366
0.000629563
0.000815054
0.00019141
0.00031123
0.000737878
0.000429489
0.000618908
0.000698408
0.000304393
0.000497613
0.00139096
0.00192592
0.0016904
0.00142998
0.00108866
0.00116137
0.000447357
0.000888901
0.000724956
0.000267288
0.000453269
0.000441521
0.000369496
1.2897e-05
0.000456771
0.000348914
0.000133632
0.00053163
0.00106493
0.000373559
0.000601941
0.000960725
0.00118731
0.000183009
0.000879642
0.00114445
0.000832358
0.000630722
0.000626967
0.000436168
0.000745882
0.00105269
0.000502451
0.000697542
0.000790208
0.000390349
0.00107766
0.00166166
0.000849993
0.000796837
0.000377465
0.000220568
0.00070351
0.000276423
0.000992724
0.00229546
0.001732
0.00150894
0.00162119
0.0026123
0.000795933
0.000446263
0.00150026
0.000807013
0.000207848
0.00115437
0.00100142
0.00114465
0.00266978
0.00143736
0.0010782
0.000315563
0.00044693
0.000539305
0.000700687
0.000910741
0.000517807
0.000328247
0.00100211
0.0010227
0.00116243
0.000304656
0.00176772
0.00213481
0.00207944
0.00152917
0.000856139
0.00226496
0.00372091
0.000196112
0.000570393
0.00104005
0.000250297
0.000254658
0.00103792
0.00200245
0.000962279
0.00106867
0.00178382
0.000616468
0.00123358
0.000648802
0.000465098
0.000452395
0.000355647
0.000825888
0.00103447
0.000390477
0.000732677
0.000341699
0.00112232
0.00158741
0.00210709
0.00172791
0.00130939
0.000876577
0.00146416
0.000968114
0.000803854
0.000619027
0.000837647
0.00117555
0.000687392
0.000591794
0.00108966
0.00174464
0.00141874
0.00120726
0.000501487
0.00153096
0.00203228
0.000491471
0.000906335
0.000587129
0.000895899
0.00174643
0.00236788
0.00216637
0.00112669
0.000723678
0.00121977
0.0017107
0.00172495
0.0042359
0.00187905
0.00526926
0.00248162
0.00523509
0.00295707
0.00839701
0.00423684
0.0118148
0.00595412
0.0129786
0.0146184
0.0151915
0.0224386
0.0125423
0.0281595
0.0083111
0.030251
0.00214933
0.0291457
0.0142265
0.0349703
0.0328981
0.040589
0.0449105
0.0308313
0.0498735
0.0108607
0.0341333
0.0184737
0.0108673
0.0308411
0.0431795
0.0283122
0.0643281
0.0209819
0.0592744
0.0441464
0.0326742
0.0510438
0.012701
0.037238
0.0117078
0.0110085
0.010668
0.0165335
0.01338
0.0226382
0.0129623
0.040033
0.0155208
0.0390492
0.0214503
0.0387617
0.0272525
0.0204029
0.0437571
0.0153908
0.0419149
0.00787575
0.0413593
0.0101263
0.0301786
0.016763
0.0252353
0.0176821
0.0164922
0.0255542
0.0229131
0.0177939
0.0183979
0.0187572
0.0237398
0.00669405
0.0237931
0.0103503
0.013046
0.0192783
0.0128856
0.00366319
0.0176859
0.0207788
0.0110782
0.0260604
0.0383258
0.024154
0.0112559
0.0222884
0.0118383
0.00875493
0.020048
0.0254383
0.0277671
0.024837
0.0140632
0.0150615
0.0219145
0.0120833
0.0135524
0.024241
0.0210066
0.0125606
0.0077662
0.00661386
0.000915642
0.00812271
0.00715832
0.00545299
0.00819607
0.00689594
0.0145337
0.00825292
0.00397068
0.00917212
0.00894521
0.00517826
0.00259606
0.0013061
0.000992983
0.000935553
0.000819582
0.000703217
0.000220025
0.000803778
0.000239757
0.00115222
0.000664018
0.000974478
0.000991528
0.000208421
0.000460011
0.000539289
0.00136874
0.000674916
0.00100286
0.000203996
0.000686616
0.000476908
0.00100376
0.00110094
0.00037517
9.91581e-05
0.000889393
0.00124058
0.000695973
0.000657633
0.000380829
0.000358822
0.000673905
0.000893417
0.000792569
0.000922954
0.00042271
0.000383906
0.000528438
0.000508143
0.00044543
0.00111038
0.0010036
0.00126024
0.00184263
0.0010489
0.00128354
0.000916891
0.000863943
0.000173854
0.000516762
0.00219213
0.00157366
0.0012304
0.00183056
0.00102353
0.00221785
0.000835546
0.00105211
0.00219089
0.00141858
0.00276419
0.00179235
0.000954949
0.00080851
0.000733164
0.000904549
0.00205237
0.000860337
0.0010157
0.00166963
0.000983119
0.00199768
0.0010743
0.00139016
0.00245042
0.000132224
0.00159595
0.00133134
0.000880766
0.00202562
0.000753139
0.00151679
0.000678724
0.00141484
0.000683346
0.000858191
0.000648646
0.00102978
0.00157288
0.000479542
0.00101618
0.000637676
0.000738968
0.00117305
0.000206706
6.55381e-05
0.00203924
0.00101353
0.00303878
0.000202896
0.000887837
0.000669384
0.000302801
0.00108641
0.000405976
0.00107915
0.000322248
0.000767488
0.000626107
0.00135698
0.000441878
0.00153104
0.000546456
0.000678529
0.000930594
0.00030039
0.00113539
0.00130227
0.000900108
0.00204663
0.000597921
0.00148076
0.000821493
0.00103447
0.00156985
0.00159443
0.000715508
0.000358538
0.000772945
0.000310177
0.000663864
0.000493985
0.00098988
0.00121818
0.00211202
0.000653579
0.000404798
0.000555384
0.00206142
0.00142271
0.0031112
0.000840339
0.00186106
0.00161678
0.000307592
0.00135885
0.00137152
0.00255741
0.00157519
0.00111455
0.000942737
0.00209317
0.00122795
0.00156545
0.00130818
0.000745535
0.000259286
0.000730153
0.000895649
0.00224087
0.000163521
0.00101631
0.00104769
0.000844266
0.000428918
0.00109003
0.00141883
0.00128697
0.00123452
0.00105215
0.00146079
0.00139567
0.000324528
0.000142864
0.00201746
0.000555049
0.00262857
0.0015616
0.00323317
0.000994805
0.000726221
0.000403636
0.00117136
0.0011562
0.000379678
0.00122202
0.00174083
0.000697755
0.000665861
0.00125111
0.00106308
0.000677499
4.69333e-05
0.000513197
0.00102999
0.00073677
0.000338856
0.000725363
0.000915753
0.00106215
0.000490834
0.000903939
0.000742433
0.00015869
0.00044492
0.000924854
0.00155694
0.00294729
0.00143329
0.00222184
0.000611682
0.00155073
0.000616929
0.00131322
0.00102578
0.0015193
0.000925537
0.00131297
0.000455871
0.00028824
0.00225482
0.000417437
0.0011049
0.00098496
0.00105983
0.000775289
0.00036431
0.000611069
0.000791796
0.000789755
0.00133032
0.00106194
0.00224598
0.000753012
0.00200579
0.000972177
0.000124186
0.000403452
0.00290236
0.000603538
0.00120684
0.000326039
0.000815934
0.00037139
0.00162672
0.00162605
0.00277902
0.000950385
0.00110556
0.00082629
0.00119569
0.00109168
0.000568536
0.000850041
0.000737935
0.000885765
0.000471466
0.000106617
0.000419218
0.000891366
0.0010404
0.00143302
0.00234727
0.00130595
0.00371895
0.00147967
0.00033498
0.00143482
0.000106405
0.00107192
0.000907793
0.000268684
0.000875222
3.08682e-05
0.000355387
0.000572218
0.000478253
0.00017828
0.000190208
0.000792006
0.000773734
0.000439331
3.90648e-05
0.00191479
0.00077095
0.000649301
0.000925465
0.002216
0.0014093
0.00137403
0.00104685
0.000256198
0.000814255
0.00109441
0.000410606
0.000496069
0.00115276
0.000791031
0.000747461
0.00290334
0.000976444
0.00099056
0.000582921
0.000315565
0.000616836
0.000448158
0.00214741
0.00178165
0.00381727
0.00202641
0.00139569
0.0031737
0.000225472
0.00110353
0.00105937
0.00136242
0.00091233
0.000804966
0.000750105
0.00136517
0.00400272
0.000696454
0.00208741
0.00124051
0.00128336
0.00129742
0.000984283
0.00152282
0.000204379
0.00114162
0.000315806
0.00143141
0.000992984
0.00036033
0.00295838
0.00161528
0.0044723
0.000640392
0.00337559
0.00313839
0.00500982
0.000222756
0.000130509
0.000944491
0.000777211
0.000513095
0.00108646
0.00105058
8.54063e-05
0.000974392
0.00133279
0.000398086
0.000375441
0.000619221
0.000697054
0.000381595
0.0005742
0.00122926
0.00140739
0.00112932
0.000413709
0.00101077
0.000680114
0.00108379
0.000730423
0.000726468
0.00119836
0.000891675
0.00141421
0.00128479
0.0014929
0.000881433
0.000130405
0.000573342
0.000640479
0.000883713
0.00225385
0.0012384
0.000422198
0.00106632
0.000176728
0.00153791
0.000705063
0.00167896
0.000412741
0.000193668
0.000470731
0.00162922
0.00221359
0.00142231
0.000935692
0.00261017
0.00215181
0.00178404
0.00194291
0.0049103
0.00487397
0.00260099
0.00591016
0.00263015
0.0116331
0.00546218
0.0159306
0.00604341
0.0197929
0.0071194
0.0208949
0.0172318
0.0192808
0.0283177
0.0107833
0.0378944
0.0091318
0.0344516
0.0269565
0.0149504
0.0516336
0.00662806
0.0612633
0.0261504
0.052328
0.0379406
0.0358841
0.0312297
0.0133727
0.0220854
0.0321697
0.0343561
0.0483246
0.0383411
0.0464003
0.031197
0.0431802
0.0287949
0.0332136
0.0207649
0.024997
0.0150046
0.0182004
0.0240834
0.0225418
0.029454
0.0258296
0.0273794
0.0259387
0.0306091
0.0133168
0.0341676
0.0211569
0.0303298
0.0321252
0.0266596
0.0400851
0.0180202
0.0394468
0.0079802
0.0317356
0.00729255
0.0266201
0.0156762
0.0229272
0.017165
0.0189613
0.0213587
0.0223003
0.0152997
0.0189558
0.0136355
0.0182037
0.0108313
0.0233958
0.00845495
0.00694039
0.0111139
0.0132361
0.00566289
0.014689
0.0121932
0.00829903
0.0100723
0.0105604
0.0122048
0.00766987
0.00562509
0.0127952
0.0122702
0.00664166
0.00365697
0.00415747
0.0151959
0.0147786
0.00223634
0.0157114
0.0108917
0.00970028
0.0274175
0.0232187
0.00437498
0.00158718
0.0115001
0.0212335
0.0145749
0.00972024
0.00700011
0.0162921
0.0160153
0.00333584
0.00994632
0.0113451
0.00851146
0.00439004
0.00274369
0.00102845
0.0013155
0.00104468
0.000676552
0.00117621
0.000277383
0.000963702
0.000219737
0.00144492
0.000966236
0.000880268
0.00135141
0.000115309
0.000472945
0.000905782
0.00160859
0.000414591
0.0012006
0.000496211
0.000740935
0.000404171
0.00164428
0.000517055
0.000785104
0.000562285
0.00142824
0.00196274
0.000283225
0.000945026
0.00114318
0.000454436
0.00141112
0.000652518
0.00124942
0.00119256
0.000180255
0.00122205
0.00101638
0.000588606
0.000142308
0.00154059
0.000362123
0.00225393
0.00221184
0.000772288
0.00192856
0.000271147
0.00114962
0.000967536
0.0011053
0.00279747
0.00179923
0.00161599
0.00208762
0.00155645
0.00216852
0.000567191
0.0012247
0.00264538
0.000858714
0.00441683
0.000927426
0.00165292
0.00125444
0.00113497
0.0004497
0.00250461
0.000469996
0.00120534
0.0017622
0.000715473
0.00262492
0.00116769
0.00178988
0.00247949
0.00148637
0.00117497
0.00173093
0.000587807
0.00275816
0.00122037
0.00219971
0.00127409
0.00122411
0.00175493
0.000861352
0.000864808
0.00062684
0.00242241
0.00065686
0.00116538
0.000936568
0.000773537
0.00128689
7.47611e-05
0.000305954
0.00218366
0.00213214
0.00270366
0.00115345
0.0010626
0.00136301
0.000763888
0.00104294
0.00055001
0.00106243
0.00055358
0.00038116
0.000794074
0.000921318
0.00104725
0.00178627
0.000470388
0.00133176
0.000550645
0.000862045
0.000922842
0.000924155
0.00164737
0.00264897
0.00199269
0.00164267
0.00139436
0.00115937
0.00158059
0.00255937
0.00166995
0.00122923
0.00105465
0.00142386
0.000891929
0.000726181
0.00184909
0.00287718
0.00213299
0.000218665
0.000357813
0.00135836
0.00237832
0.00133095
0.00331382
0.002241
0.00143606
0.00236279
0.000164423
0.00132069
0.00225855
0.00229161
0.0026182
0.000780428
0.000491594
0.00263904
0.00119235
0.00149098
0.00113555
0.000663564
0.000664469
0.00102817
0.00119658
0.00158983
0.00170924
0.000655561
0.0003763
0.00133961
0.000909578
0.00174232
0.00205645
0.00176591
0.000758514
0.00219554
0.00306509
0.00111838
0.00158424
0.00103774
0.00219997
0.000634552
0.00335038
0.00158543
0.00358722
0.00106166
0.000716571
0.000899012
0.00206719
0.000903695
0.00109552
0.000780787
0.00229612
0.000494501
0.000683516
0.00144424
0.00166637
0.000583956
0.000215563
0.000760688
0.000882394
0.000647196
0.000686426
0.000463445
0.00117279
0.00137704
0.00096795
0.00102668
0.0011281
0.000825262
0.000851422
0.000225571
0.00263094
0.00273219
0.00123216
0.00273738
0.00119844
0.00178804
0.000780473
0.00190733
0.0010874
0.00214794
0.000812276
0.00151329
0.000256439
0.000938964
0.00209555
0.000949273
0.00123966
0.0024647
0.000824754
0.00105976
0.000680685
0.00080688
0.00151299
0.00127639
0.00180291
0.00203938
0.0020179
0.000807246
0.0025587
0.00071644
0.000499789
0.00073461
0.00203085
0.00276973
0.000270336
0.000731404
0.00078018
0.000200528
0.00244231
0.000940445
0.00316417
0.0016717
0.00122306
0.00143642
0.00130932
0.00138935
0.000684382
0.00113207
0.000476544
0.00134497
0.000501404
0.0010336
0.000337587
0.000747166
0.00175901
0.00165316
0.00186154
0.00242184
0.00298003
0.0026631
0.00120235
0.00216858
0.00174151
0.00112547
0.0014498
0.000376561
0.0010658
0.000848925
0.000509081
0.000260549
0.00123352
0.000281085
0.000379056
0.000254796
0.00217648
0.000652859
0.000925941
0.00182755
0.00175807
0.000186621
0.000968948
0.00316264
0.00144844
0.0021931
0.00104845
0.000968686
0.000842987
0.00185794
0.00103366
0.000660611
0.00138461
0.000652516
0.00214856
0.00298337
0.000760715
0.00128168
0.000303903
0.000360305
0.000733955
0.000960975
0.00233492
0.00189768
0.00382494
0.0022688
0.00367268
0.00161845
0.000551023
0.00105228
0.00185675
0.000979126
0.000532299
0.00283189
0.00115435
0.00175306
0.00334428
0.00290412
0.00216979
0.00164062
0.000490398
0.00167931
0.00197578
0.00141373
0.000783067
0.000606213
0.00103756
0.00123599
0.000430846
0.000681083
0.00325828
0.00222306
0.00421469
0.00270554
0.00340226
0.00405913
0.00507468
0.000576963
0.000909398
0.000769871
0.000777129
0.001178
0.000666678
0.000702058
0.00134512
0.0013305
0.00220137
0.000493323
0.000836127
0.000269736
0.00063254
0.00128033
0.00096381
0.00193271
0.00063798
0.00169236
0.0014848
0.00108201
0.000545127
0.000452468
0.000345315
0.000447742
0.000585602
0.00138113
0.00156891
0.00093958
0.00149737
0.00217703
0.00183451
0.00135076
0.000636883