/*--------------------------------*- C++ -*----------------------------------*\
| =========                 |                                                 |
| \\      /  F ield         | OpenFOAM: The Open Source CFD Toolbox           |
|  \\    /   O peration     | Version:  v2012                                 |
|   \\  /    A nd           | Website:  www.openfoam.com                      |
|    \\/     M anipulation  |                                                 |
\*---------------------------------------------------------------------------*/
FoamFile
{
    version     2.0;
    format      ascii;
    class       volScalarField;
    location    "500";
    object      he_filtered;
}
// * * * * * * * * * * * * * * * * * * * * * * * * * * * * * * * * * * * * * //

dimensions      [0 2 -2 0 0 0 0];


internalField   nonuniform List<scalar> 
65536
(
-2978.52
-2977.31
-2974.73
-2970.57
-2964.99
-2958.33
-2950.83
-2942.23
-2932.06
-2920.1
-2906.57
-2891.73
-2875.69
-2858.52
-2840.37
-2821.39
-2801.63
-2781.07
-2759.68
-2737.56
-2714.92
-2692.05
-2669.18
-2646.44
-2623.79
-2601.08
-2578.15
-2555.01
-2531.98
-2509.63
-2488.45
-2468.76
-2450.81
-2434.63
-2420.01
-2406.52
-2393.73
-2381.32
-2369.28
-2357.77
-2347.06
-2337.35
-2328.77
-2321.6
-2316.05
-2312.11
-2309.67
-2308.35
-2307.64
-2307.28
-2307.33
-2308.13
-2310.23
-2313.88
-2319.17
-2325.88
-2333.42
-2341.42
-2349.71
-2358.16
-2367.41
-2378.37
-2391.14
-2404.26
-2418.13
-2434.47
-2452.64
-2469.5
-2485.95
-2506.46
-2527.66
-2543.73
-2562.34
-2589.69
-2612.71
-2628.45
-2650.01
-2683.15
-2706.02
-2726.27
-2752.12
-2781.64
-2812.74
-2843.58
-2863.52
-2892.69
-2939.17
-2974.46
-2995.43
-3040.01
-3088.54
-3119.08
-3153.21
-3203.03
-3245.75
-3283.24
-3332.39
-3382.28
-3430.48
-3481.09
-3535.1
-3594.6
-3656.62
-3713.27
-3770.78
-3840.04
-3907.11
-3966.73
-4027.84
-4102.41
-4173.62
-4240.02
-4315.51
-4397.92
-4472.82
-4548.07
-4630.65
-4712.01
-4788.07
-4866.66
-4948.01
-5028.31
-5107.31
-5186.53
-5271.87
-5353.63
-5431.84
-5511.33
-5594.64
-5676.02
-5754.61
-5826.63
-5902.03
-5978.07
-6055.72
-6129.68
-6200.64
-6270.54
-6342.46
-6418.82
-6491.05
-6555.69
-6612.09
-6661.14
-6706.41
-6750.26
-6795.71
-6838.37
-6875.62
-6906.59
-6929.93
-6942.41
-6941.77
-6927.83
-6902.56
-6863.63
-6805.54
-6715.78
-6574.98
-6375.68
-6117.23
-5795.73
-5400.89
-4940.88
-4403.37
-3817.06
-3196.52
-2558.27
-1925.76
-1328.07
-786.409
-313.194
85.722
407.97
654.893
830.869
948.403
1023.7
1074.97
1110.22
1132.97
1148.58
1160.3
1167.62
1172.34
1173.54
1172.97
1170.06
1164.85
1160.36
1153.94
1147.92
1141.57
1135.74
1131.86
1127.49
1125.68
1123.79
1120.08
1116.92
1113.99
1109.4
1104.29
1099.66
1094.89
1090.45
1084.68
1080.01
1075.18
1072.61
1068.29
1068.7
1071.23
1074.45
1076.64
1077.45
1079.8
1081.1
1081.84
1082.22
1082.42
1082.59
1082.85
1085.66
1088.74
1091.78
1093.55
1096.62
1098.79
1099.24
1098.51
1095.96
1095.05
1091.53
1089.95
1089.31
1089.2
1090.15
1092.06
1094.5
1097.9
1101.74
1104.73
1109.35
1114.37
1119.51
1121.72
1126.31
1129.62
1130.61
1130.6
1128.45
1124.95
1121.25
1117.8
1112.14
1106.92
1102.87
1099.89
1099.2
1098.62
1098.69
1096.64
1095.21
1092.1
1087.91
1081.84
1075.54
1066.53
1060.29
1055.04
1052.03
1046.88
1044.9
1042.11
1042.21
1042.2
1046.87
1051.93
1060.41
1069.12
1075.34
1081.54
1085.49
1088.69
1090.62
1094.17
1096.5
1097.87
1100.79
1102.01
1104.6
1104.79
1104.25
1103.24
1101.38
1100.56
1099.52
1098.45
1097.31
1095.29
1092.76
1093.11
1091.14
1088.85
1088.75
1086.19
1084.55
1081.06
1078.32
1074.94
1069.34
1064.83
1061.32
1060.7
1060.66
1064.04
1066.81
1070.99
1074.25
1077.53
1081.33
1084.96
1087.85
1090.82
1092.84
1094.11
1093.97
1093.03
1091.34
1088.86
1085.95
1083.03
1079.9
1077.87
1075.93
1074.65
1075.42
1076.52
1075.11
1075.09
1073.87
1073.84
1073.09
1072.34
1072.85
1071.8
1070.53
1068.47
1066.63
1063.77
1061.04
1057.92
1054.09
1049.3
1045.11
1042.16
1040.67
1041.58
1043.98
1047.85
1050.34
1051.75
1051.8
1053.67
1053.56
1055.78
1058.24
1062.27
1066.7
1070.86
1075.51
1079.74
1083.37
1087.44
1091.4
1095.64
1097.92
1098.31
1096.62
1094.02
1089.7
1087.31
1081.93
1080.13
1079.74
1079.54
1080.67
1082.69
1082.89
1081.67
1079.41
1076.81
1077.55
1078.27
1083.31
1091.44
1099.93
1108.14
1114.29
1119.06
1121.71
1125.6
1127.36
1127.45
1126.73
1125.6
1121.8
1118.96
1115.64
1111.75
1106.61
1102.83
1101.49
1096.97
1094.29
1093.07
1095.05
1094.62
1096.71
1098.92
1101.06
1101.64
1101.83
1100.53
1098.2
1097.08
1097.01
1095.35
1096.44
1096.72
1095.67
1096
1094.13
1092.92
1093.44
1090.79
1092.53
1095.15
1096.68
1098.91
1099.76
1099.57
1099.32
1097.81
1095.17
1092.58
1090.03
1086.15
1084.81
1083.13
1083.83
1085.3
1087.81
1090.64
1094.65
1098.05
1100.17
1100.59
1100.4
1099.86
1098.83
1098.6
1100.35
1102.65
1103.81
1105.92
1110.14
1112.98
1113.73
1113.99
1111.7
1107.2
1102.38
1095.29
1090.19
1086.48
1080.25
1075.52
1070
1065.38
1062.35
1057.59
1051.48
1049.8
1047.88
1048.49
1048.1
1050.54
1056.54
1061.52
1067.45
1072.07
1075.69
1079.33
1081.32
1081.87
1084.6
1084.87
1086.22
1086.2
1083.79
1080.83
1076.31
1071.59
1065.12
1058.41
1051.05
1043.59
1035.04
1026.7
1025.42
-3086.89
-3086.04
-3084.3
-3080.15
-3073.99
-3066.63
-3059.14
-3052.53
-3042.42
-3029.11
-3015.48
-3000.5
-2984.25
-2966.97
-2948.18
-2929.04
-2909.8
-2889.38
-2867.89
-2845.25
-2821.63
-2797.91
-2774.87
-2752.49
-2729.96
-2707.08
-2684
-2659.87
-2635.33
-2611.81
-2589.84
-2569.36
-2550.94
-2534.98
-2521.41
-2509.4
-2497.29
-2484.41
-2471.4
-2459.62
-2448.37
-2437.54
-2428.46
-2420.56
-2413.81
-2409.82
-2408.4
-2408.54
-2409.29
-2408.77
-2406.57
-2404.77
-2405.76
-2411.01
-2418.47
-2424.34
-2430.01
-2440.02
-2450.15
-2457.66
-2459.12
-2469.06
-2488.79
-2500.12
-2515.1
-2530.13
-2550.6
-2564.96
-2583.55
-2609.84
-2627.54
-2639.36
-2667.67
-2691.93
-2706.91
-2729.93
-2791.24
-2801.81
-2811.7
-2827.79
-2868.74
-2904.65
-2922.82
-2947.81
-2983.74
-3017.99
-3046.53
-3081.66
-3130.6
-3164.51
-3201.01
-3231.93
-3276.92
-3318.54
-3360.64
-3404.32
-3453.17
-3500.89
-3546.03
-3601.28
-3655.53
-3717.37
-3776.38
-3838.02
-3910.09
-3969.89
-4030.76
-4084.87
-4158.37
-4227.94
-4291.33
-4367.64
-4454.19
-4526.19
-4602.15
-4682.55
-4762.88
-4836.74
-4916.64
-4995.97
-5082.8
-5163.98
-5234.61
-5324.11
-5408.21
-5487.06
-5562.23
-5641.84
-5724.05
-5816.35
-5890.86
-5966.67
-6033.25
-6114.84
-6187
-6259.54
-6331.86
-6413.15
-6497.67
-6570.32
-6637.74
-6698.87
-6745.38
-6789.34
-6832.89
-6885.65
-6931.93
-6979.62
-7026.76
-7064.15
-7085.56
-7091.55
-7086.84
-7073.24
-7044.9
-6999.23
-6940.08
-6876.93
-6786.81
-6610.36
-6349.66
-6026.81
-5617.85
-5152.67
-4581.85
-3958.2
-3311.09
-2647.53
-1987.65
-1379.64
-841.207
-385.41
-6.86461
295.059
524.682
690.792
806.982
887.557
936.438
968.374
993.51
1008.42
1018.86
1029.3
1032.41
1036.5
1034.55
1032.1
1028.88
1015.16
1010.03
1003.45
999.256
995.398
987.267
988.243
983.129
978.824
980.807
976.953
971.05
966.914
960.68
952.268
950.521
945.212
940.234
928.899
924.677
917.831
929.699
931.828
931.83
931.883
935.581
943.173
941.385
942.073
943.953
944.425
943.159
941.458
943.753
943.835
944.684
947.199
955.697
957.9
960.111
959.022
956.015
952.776
942.287
947.669
948.441
948.611
950.113
948.64
952.536
958.153
958.736
960.29
966.233
970.431
971.999
973.913
985.302
985.048
988.473
991.498
985.924
979.99
981.998
980.993
974.887
972.814
969.414
965.598
965.021
960.122
958.492
955.995
961.406
958.813
954.928
947.107
939.4
929.777
928.396
918.036
909.344
898.535
904.115
898.336
896.137
889.232
895.209
894.324
908.177
917.916
925.36
935.916
937.469
944.019
946.95
953.629
951.169
952.879
958.98
958.731
965.21
962.492
965.198
966.783
963.598
963.115
958.948
956.925
955.162
954.072
952.631
957.349
947.662
947.94
948.255
940.824
939.763
933.613
938.609
937.353
930.93
924.62
914.424
910.517
908.229
916.749
919.675
927.265
928.762
935.356
939.692
942.738
946.929
950.251
951.863
953.246
952.754
955.256
954.923
953.443
948.753
944.207
938.561
935.219
932.817
929.578
928.231
931.314
933.524
939.278
934.441
933.389
930.374
931.768
934.254
933.186
933.815
930.105
925.942
918.071
920.49
921.025
919.401
914.528
909.707
903.496
895.268
893.104
900.017
906.453
908.339
909.906
909.868
910.768
904.834
911.705
911.209
916.816
913.609
916.493
927.366
934.718
939.998
941.332
941.967
950.481
955.186
958.486
957.99
955.846
950.044
945.851
933.503
936.907
932.692
930.411
935.764
940.665
939.891
940.98
940.947
937.935
934.556
923.878
928.708
933.343
943.798
959.033
968.561
977.732
980.794
984.477
982.323
985.895
988.209
988.813
984.448
985.991
980.392
972.513
964.914
964.337
959.341
945.395
949.246
948.638
948.508
940.537
951.295
955.651
959.854
964.125
965.903
964.457
963.104
964.693
960.195
953.091
956.91
955.485
956.229
960.088
954.046
952.426
948.827
939.036
950.339
951.096
951.559
954.834
956.679
959.682
961.649
957.627
955.346
955.813
951.877
947.357
949.151
942.876
946.333
943.317
944.802
945.768
948.307
951.624
956.748
959.588
964.259
961.75
960.298
959.962
960.449
958.336
958.251
966.009
970.761
968.387
970.101
976.153
975.035
973.192
969.433
961.8
958.204
946.886
933.291
935.894
932.732
934.122
929.403
916.541
910.1
910.638
900.591
902.98
901.967
906.937
904.615
903.036
913.753
922.702
930.832
935.407
935.463
938.863
941.173
935.094
943.807
944.891
943.46
943.716
939.775
936.719
928.006
924.671
916.356
906.947
897.684
887.187
881.398
863.418
-3284.58
-3283.65
-3281.71
-3277.26
-3270.89
-3263.39
-3255.34
-3248.22
-3237.22
-3222.44
-3207.67
-3191.53
-3173.59
-3154.4
-3133.73
-3112.79
-3091.56
-3068.78
-3044.92
-3020.1
-2994.16
-2967.92
-2942.5
-2918.08
-2893.84
-2869.47
-2845.24
-2819.84
-2793.17
-2766.91
-2742.55
-2720.21
-2700.57
-2684.36
-2671.26
-2659.83
-2647.99
-2635.27
-2622.63
-2611.5
-2601.15
-2590.92
-2581.83
-2573.91
-2567.91
-2565.8
-2567.04
-2569.89
-2572.48
-2572.56
-2570.11
-2568.47
-2570.63
-2576.89
-2585.91
-2594.8
-2604.81
-2618.49
-2630.25
-2639.12
-2643.24
-2653.85
-2682.99
-2695.18
-2706.44
-2723.8
-2758.21
-2779.63
-2793.67
-2825.39
-2854.44
-2865.89
-2894.3
-2922.92
-2917.6
-2958.51
-3028.87
-3030.28
-3013.91
-3037.55
-3108.82
-3157.36
-3143.08
-3160.4
-3240
-3283.92
-3276.54
-3300.31
-3406.71
-3437.03
-3437.94
-3483.72
-3558.28
-3568.07
-3592.92
-3660.82
-3739.05
-3753.33
-3794.11
-3849.16
-3935.85
-3967.26
-4022.3
-4099.71
-4212
-4234.19
-4279.97
-4372.61
-4435.95
-4491.18
-4548.17
-4622.69
-4717.47
-4797.4
-4863.18
-4949.97
-5033.16
-5105.56
-5176.62
-5267.04
-5347.36
-5417.33
-5505.34
-5590.09
-5692.23
-5757.03
-5829.99
-5915.59
-6006.65
-6081.58
-6169.65
-6232.32
-6316.44
-6382.36
-6451.45
-6518.95
-6601.76
-6680.83
-6773.65
-6862.13
-6947.6
-6983.5
-7022.17
-7056.26
-7101.56
-7149.23
-7216.8
-7278.07
-7323.93
-7356.97
-7376.22
-7379.59
-7367.1
-7344.85
-7319.19
-7293.79
-7256.8
-7203.63
-7100.75
-6914.33
-6641.96
-6305.42
-5887.61
-5408.33
-4840.97
-4225
-3542.97
-2857.49
-2137.89
-1489.31
-976.488
-538.3
-183.87
94.3659
303.475
453.944
553.376
614.101
665.601
701.652
718.095
731.349
743.739
747.652
755.554
750.707
752.33
745.341
735
735.937
720.683
713.099
705.029
696.15
696.299
685.733
691.184
691.87
683.295
685.34
680.692
678.479
674.796
672.484
667.059
664.806
653.603
644.774
637.378
639.581
625.435
629.421
637.692
650.03
653.424
646.118
654.651
659.18
659.576
659.689
660.501
660.108
654.54
655.009
662.244
665.144
661.416
669.081
672.662
677.24
670.076
661.497
662.647
654.117
651.28
654.796
651.298
656.874
656.206
653.893
664.796
669.971
670.357
674.705
685.499
694.008
691.393
707.992
709.92
705.354
706.226
706.61
699.899
699.251
696.977
692.601
686.679
680.1
669.543
674.849
678.885
680.537
670.377
670.36
668.79
667.072
659.314
647.318
630.003
630.198
623.828
620.096
611.344
614.897
610.508
606.366
597.52
607.089
612.66
630.424
646.327
650.1
660.245
655.512
658.367
653.328
661.254
665.763
666.653
677.332
677.767
686.475
687.117
683.934
684.211
677.019
671.868
669.473
671.212
670.346
672.735
656.528
667.728
662.69
655.933
660.447
652.079
650.049
647.918
650.331
647.214
636.428
627.383
621.646
619.577
628.441
643.202
644.266
651.694
650.55
654.124
655.393
654.083
663.838
670.463
676.742
682.645
679.417
678.158
671.703
666.914
655.951
646.612
644.108
643.277
637.801
624.387
636.884
646.603
643.9
650.592
645.556
641.549
640.543
640.656
643.575
641.005
642.557
633.853
628.841
633.906
639.402
636.199
632.309
622.965
609.711
603.821
602.303
601.625
610.69
623.32
630.805
632.493
629.477
632.32
626.175
633.25
621.995
633.616
631.751
640.61
652.816
653.767
651.51
647.94
660.98
674.652
678.693
677.218
669.64
663.808
652.827
648.308
645.905
649.264
651.646
654.091
657.301
667.29
668.439
661.123
652.359
638.747
634.992
630.164
628.803
658.515
675.829
692.537
695.755
699.767
698.602
705.97
704.104
707.174
702.592
699.246
688.921
688.371
689.099
683.858
674.017
664.386
666.742
660.814
659.916
650.377
652.062
652.667
665.378
672.163
670.199
676.546
679.615
677.624
665.854
665.97
668.956
662.633
664.947
665.05
658.783
667.535
665.667
657.68
659.122
649.345
659.584
663.526
667.084
671.137
669.923
666.104
670.334
674.007
670.662
666.977
660.728
646.889
652.987
641.608
649.419
647.685
648.732
655.79
668.437
676.176
683.08
676.061
679.102
670.512
666.92
670.621
677.543
679.202
672.617
675.014
688.684
695.532
692.824
693.745
689.909
683.804
672.834
657.593
653.245
646.775
645.136
646.043
631.88
627.844
634.972
627.997
605.922
603.624
608.023
615.208
609.085
614.042
624.848
632.438
641.967
642.849
644.267
649.402
643.833
641.524
652.999
648.255
654.396
658.757
654.837
647.979
643.372
645.82
635.869
630.396
626.417
608.48
595.572
567.855
558.413
-3399.81
-3398.6
-3395.48
-3390.26
-3384.07
-3377.21
-3368.39
-3358.18
-3345.07
-3328.79
-3312.08
-3293.82
-3273.03
-3250.5
-3227.07
-3203.26
-3178.03
-3150.68
-3122.54
-3094.54
-3065.86
-3036.33
-3007.1
-2978.77
-2951.17
-2924.23
-2898.48
-2871.94
-2842.78
-2812.83
-2785.58
-2761.35
-2740.74
-2724.55
-2711.92
-2700.84
-2688.9
-2676.55
-2665.25
-2656.35
-2648.98
-2641.3
-2633.57
-2627.42
-2624.8
-2626.73
-2631.82
-2637.97
-2642.83
-2645.16
-2645.69
-2648.06
-2654.1
-2660.8
-2671.99
-2689.3
-2709.68
-2726.17
-2740.7
-2759.01
-2789.36
-2799.3
-2823.01
-2843.82
-2846.58
-2869.24
-2922.36
-2963.73
-2981.16
-3002.56
-3049.38
-3082.9
-3098.66
-3132.31
-3151.06
-3172.8
-3186.7
-3237.89
-3279.04
-3300.96
-3345.16
-3392.73
-3414.29
-3431.65
-3502.44
-3541.55
-3526.36
-3559.28
-3681.41
-3710.45
-3695.95
-3775.52
-3846.37
-3848.92
-3890.37
-3975.88
-4043.95
-4061.93
-4078.04
-4158.73
-4254.36
-4282.39
-4325.19
-4429.47
-4525.47
-4543
-4580.11
-4711.04
-4768.87
-4810.2
-4869.62
-4971.3
-5070.57
-5128.79
-5221.23
-5310.58
-5366.44
-5439.21
-5525.64
-5612.86
-5723.72
-5765.92
-5841.22
-5959.97
-6071.07
-6102.73
-6164.52
-6250.98
-6354.57
-6466.49
-6560.45
-6596.8
-6658.91
-6767.37
-6802.71
-6874.44
-6959.25
-7085.71
-7202.5
-7264.03
-7374.33
-7384.08
-7384.58
-7412.55
-7455.28
-7525.34
-7592.11
-7669.07
-7740.98
-7786.01
-7796.87
-7782.88
-7761.73
-7742.21
-7721.74
-7687.72
-7630.61
-7528.69
-7366.7
-7141.54
-6843.33
-6494.78
-6057.65
-5573.1
-4990.75
-4367.75
-3660.45
-2912.9
-2246.23
-1632.71
-1153.29
-737.561
-412.205
-159.658
21.3805
141.158
219.527
279.428
314.59
333.594
346.215
343.615
358.791
380.607
381.597
389.557
381.125
378.768
369.576
346.575
340.322
334.274
325.797
316.719
304.93
308.705
304.246
310.672
316.053
307.1
307.888
298.234
283.841
257.354
278.972
282.305
271.93
225.033
236.567
212.577
245.564
256.487
260.278
261.675
267.538
274.259
277.507
281.54
289.655
292.172
287.41
276.04
273.981
280.767
277.421
274.635
274.545
287.009
299.228
294.428
290.49
277.36
239.102
268.093
279.851
271.671
273.752
255.9
274.911
287.632
292.138
293.586
287.535
297.916
303.249
294.368
294.265
304.985
325.441
330.01
307.372
278.13
306.822
314.899
316.06
312.935
307.958
303.216
298.237
297.33
293.994
290.696
301.681
304.569
302.829
288.412
277.024
261.076
249.45
235.991
224.067
188.016
230.628
230.068
217.578
182.513
204.905
179.746
212.114
242.162
259.186
274.32
265.523
273.085
271.71
274.111
284.308
288.741
294.477
296.617
304.74
305.184
309.266
309.834
305.563
300.554
293.559
291.162
290.374
288.264
273.335
278.682
267.306
267.366
260.756
258.12
259.765
227.356
268.558
276.561
269.029
252.499
209.98
217.463
194.03
242.461
253.202
269.987
269.182
276.213
275.413
281.153
290.448
289.319
297.804
297.732
293.583
297.856
294.575
295.525
287.411
272.465
255.123
239.631
245.361
237.286
194.254
252.587
269.276
277.603
267.086
263.075
247.141
255.353
253.123
264.447
274.392
268.045
254.908
208.074
248.703
255.24
258.564
251.311
242.527
233.117
215.867
189.129
221.303
233.437
251.197
258.575
257.438
245.008
224.499
244.141
241.645
250.341
229.77
206.837
258.436
275.503
281.239
270.126
232.061
282.678
300.523
304.957
297.118
293.035
285.239
272.821
219.704
257.505
257.884
250.801
264.202
278.169
279.864
285.509
291.5
280.722
258.222
205.715
227.67
194.082
260.566
302.477
317.476
326.77
317.665
307.861
313.521
326.371
329.618
330.417
319.727
315.78
311.879
297.537
283.045
287.985
282.77
233.696
267.3
271.533
260.373
217.968
265.01
282.976
293.554
308.687
312.555
312.256
305.752
303.421
289.997
271.777
259.628
272.859
283.497
285.347
283.332
282.783
270.915
228.967
266.269
269.173
276.75
263.049
279.781
294.31
296.676
294.513
292.041
285.714
283.914
272.676
271.791
259.434
266.352
258.691
263.268
262.861
254.695
272.512
292.138
298.868
312.777
304.205
301.227
287.232
292.126
293.282
293.233
300.922
300.93
297.726
304.734
322.613
325.821
323.608
313.458
298.655
290.186
269.536
217.184
260.547
266.9
263.899
261.213
245.76
231.589
216.304
178.066
219.575
223.814
221.336
197.999
190.609
229.638
249.814
263.315
259.924
259.402
264.542
262.881
238.348
269.499
278.138
277.885
274.159
272.725
269.135
256.924
253.186
249.45
233.587
227.228
204.091
178.537
103.722
-3455.28
-3454.25
-3450.83
-3444.57
-3437.95
-3431.19
-3421.64
-3411.03
-3395.87
-3376.92
-3358.86
-3338.69
-3315.25
-3289.86
-3263.55
-3237.27
-3208.77
-3176.95
-3144.59
-3113.89
-3082.97
-3050.35
-3017.29
-2984.83
-2953.66
-2923.63
-2896.85
-2870.83
-2836.65
-2800.93
-2772.42
-2748.54
-2729.37
-2715.09
-2704.43
-2694.87
-2683.62
-2672.84
-2664.71
-2660.09
-2657.06
-2652.78
-2649.19
-2648.7
-2652.13
-2659.09
-2668.63
-2677.81
-2687.11
-2693.82
-2700.77
-2708.73
-2717.46
-2731.07
-2745.93
-2768.17
-2793.43
-2818.23
-2836.95
-2870.21
-2909.35
-2928.14
-2927.62
-2950.85
-2991.81
-3015.98
-3034.64
-3079.4
-3136.72
-3148.86
-3165.97
-3210.37
-3261.3
-3275.92
-3308.21
-3356.35
-3368.44
-3427.78
-3509.11
-3520.17
-3527.19
-3579.42
-3650.6
-3667.33
-3715.74
-3755.99
-3741.03
-3802.64
-3906.46
-3928.55
-3930.15
-4006.71
-4087.02
-4099.81
-4143.98
-4221.63
-4267.97
-4324.12
-4392.43
-4449.55
-4506.63
-4578.24
-4660.17
-4731.36
-4783.43
-4847.98
-4912.82
-4979.33
-5082.61
-5173.62
-5222.37
-5341.9
-5433.69
-5523.14
-5617.03
-5679.23
-5753.23
-5846.83
-5926.52
-6009.85
-6108.48
-6147.4
-6241.93
-6358.73
-6427.07
-6477.01
-6561.44
-6651.58
-6772.53
-6873.35
-6928.21
-6969.51
-7069.55
-7174.72
-7193.83
-7257.53
-7378.25
-7526.63
-7632.16
-7707.72
-7786.49
-7815.22
-7804.99
-7825.82
-7878.15
-7943.36
-8043.33
-8145.45
-8219.77
-8260.67
-8267.24
-8246.47
-8213.14
-8174.74
-8125.01
-8047.98
-7938.44
-7791.21
-7599.33
-7340.92
-7030.76
-6654.5
-6211.78
-5700.57
-5114.64
-4466.24
-3761.99
-3014.3
-2360.31
-1803.31
-1352.42
-975.1
-683.764
-468.729
-316.38
-218.096
-177.042
-171.604
-111.418
-80.8458
-82.3136
-120.747
-71.6091
-57.1388
-51.1104
-78.559
-60.4017
-76.3616
-93.1947
-105.087
-127.243
-131.834
-139.971
-158.93
-183.884
-201.097
-153.624
-152.609
-178.558
-151.209
-160.773
-143.239
-148.048
-194.845
-148.256
-136.377
-157.157
-221.239
-209.293
-265.354
-241.235
-222.831
-219.03
-175.73
-174.276
-213.454
-177.807
-164.85
-154.969
-147.251
-153.225
-165.084
-203.297
-184.745
-172.162
-177.18
-213.528
-166.762
-144.536
-138.312
-159.858
-178.737
-236.101
-196.694
-209.945
-184.995
-198.224
-240.029
-196.211
-209.428
-170.676
-170.281
-208.437
-175.905
-152.756
-149.801
-202.315
-136.211
-112.819
-120.112
-146.823
-216.127
-153.365
-129.214
-130.98
-126.873
-126.959
-141.722
-187.859
-147.191
-144.918
-155.521
-169.147
-151.448
-148.596
-151.282
-168.235
-201.096
-243.887
-215.314
-229.607
-284.962
-230.075
-223.35
-224.293
-276.507
-245.51
-286.767
-267.285
-197.692
-174.758
-179.402
-178.266
-196.031
-193.706
-226.269
-192.63
-194.009
-183.997
-153.494
-144.041
-132.51
-126.824
-126.334
-137.035
-161.329
-189.792
-191.69
-177.294
-173.232
-173.797
-222.746
-184.178
-185.454
-228.558
-182.343
-186.254
-232.81
-181.511
-167.468
-181.673
-194.574
-236.832
-212.302
-251.081
-197.126
-175.47
-182.497
-188.001
-181.744
-178.876
-181.243
-193.046
-161.926
-150.761
-140.472
-134.996
-139.908
-136.697
-142.113
-152.439
-171.552
-224.25
-249.539
-197.003
-195.33
-241.255
-184.376
-167.913
-186.709
-174.242
-190.422
-240.888
-201.811
-231.092
-188.059
-189.23
-178.192
-183.303
-234.811
-183.927
-175.925
-176.012
-179.591
-196.298
-220.194
-258.914
-268.601
-235.038
-244.373
-195.354
-178.56
-180.045
-191.653
-242.551
-216.566
-210.195
-241.49
-208.246
-243.226
-178.795
-152.514
-145.681
-157.213
-201.423
-146.766
-127.025
-132.17
-141.389
-168.759
-167.546
-182.499
-241.97
-197.115
-210.255
-224.548
-181.59
-161.428
-147.103
-144.42
-159.365
-171.213
-199.171
-254.44
-208.141
-240.91
-169.436
-134.627
-108.679
-107.248
-119.422
-180.074
-144.168
-147.891
-125.582
-121.94
-131.932
-170.873
-153.308
-149.322
-190.702
-161.883
-181.058
-245.127
-188.384
-178.872
-202.836
-261.634
-210.675
-173.554
-163.881
-172.635
-147.268
-137.741
-147.101
-185.628
-179.914
-191.716
-245.38
-189.374
-184.292
-218.074
-170.789
-166.97
-186.499
-254.912
-214.493
-181.492
-190.587
-231.007
-171.333
-166.182
-182.067
-180.997
-163.817
-154.132
-170.58
-192.187
-233.123
-206.642
-224.835
-197.285
-197.418
-218.843
-247.067
-176.073
-148.926
-127.923
-140.137
-141.708
-161.448
-201.735
-158.469
-157.194
-172.19
-174.299
-176.843
-153.41
-138.269
-131.642
-118.548
-126.187
-148.785
-178.391
-205.532
-193.057
-240.455
-186.634
-189.725
-234.566
-231.786
-204.751
-214.526
-270.725
-280.917
-227.157
-207.384
-231.326
-284.649
-290.178
-217.974
-182.735
-187.396
-213.61
-188.86
-209.139
-232.2
-253.248
-190.166
-168.882
-159.1
-174.575
-207.099
-196.468
-194.022
-188.013
-193.566
-211.771
-251.23
-255.238
-305.371
-371.741
-3465.54
-3465.79
-3461.62
-3452.87
-3445.99
-3441.18
-3430.25
-3420.79
-3401.18
-3378.37
-3360.94
-3338.91
-3312.66
-3284.45
-3255.9
-3228.22
-3196.72
-3161.97
-3128.77
-3097.74
-3066.27
-3033.67
-3001.06
-2969.45
-2939.5
-2911.62
-2885.84
-2859.6
-2830.84
-2802.28
-2777.4
-2756.84
-2740.72
-2729.4
-2721.06
-2713.87
-2706.57
-2699.82
-2696.7
-2696.84
-2697.03
-2698.1
-2699.62
-2704.7
-2712.57
-2724.57
-2737.23
-2750.03
-2761.09
-2774.18
-2784.67
-2797.17
-2812.93
-2827.5
-2846.11
-2870.86
-2902.34
-2932.93
-2960.63
-2988.75
-3015
-3045.44
-3065.96
-3093.17
-3123.23
-3167.4
-3195.62
-3236.51
-3275.42
-3309.55
-3336.95
-3386.39
-3432.34
-3460.25
-3514.52
-3565.21
-3572.98
-3617.24
-3661.76
-3715.75
-3727.57
-3783.13
-3827.55
-3870.85
-3934.73
-3986.1
-3973.96
-4023.67
-4112.95
-4163.64
-4173.99
-4257.57
-4338.12
-4356.31
-4419.03
-4492.29
-4545.14
-4612
-4705.11
-4746.8
-4812.9
-4880.62
-4975.36
-5040.9
-5094.07
-5157.67
-5242.28
-5294.46
-5411.12
-5519.51
-5571.26
-5686.87
-5793.94
-5880.31
-5940.02
-6024.75
-6120.08
-6207.08
-6240.77
-6348.66
-6403.39
-6523.85
-6633.89
-6681.92
-6745.34
-6838.62
-6957.8
-7055.03
-7136.71
-7167.91
-7236.94
-7339.68
-7457.53
-7482.86
-7582.21
-7665.37
-7758.44
-7846.44
-7949.26
-8083.64
-8112.02
-8176.47
-8227.45
-8271.91
-8331.24
-8428.49
-8534.12
-8608.24
-8651.6
-8673.59
-8672.83
-8646.95
-8597.26
-8529.55
-8449.03
-8348.97
-8215.02
-8032.81
-7797.08
-7504.42
-7167.88
-6768.49
-6306.94
-5777.13
-5173.77
-4517.69
-3779.66
-3088.49
-2504.25
-1989.86
-1588.77
-1247.63
-995.142
-804.595
-682.43
-634.536
-655.328
-651.326
-575.541
-561.258
-552.304
-587.994
-576.588
-534.606
-537.122
-596.626
-565.174
-556.594
-581.974
-636.017
-664.852
-625.239
-630.058
-681.654
-733.003
-739.279
-673.01
-654.654
-707.422
-652.5
-657.643
-626.084
-626.332
-616.401
-614.178
-618.733
-604.365
-612.336
-661.118
-639.002
-702.842
-711.951
-708.177
-691.525
-682.125
-735.889
-684.114
-691.435
-654.764
-642.506
-637.159
-659.919
-702.886
-679.579
-685.827
-687.293
-726.417
-671.833
-641.482
-649.374
-686.106
-653.029
-642.928
-662.373
-730.537
-698.659
-682.081
-711.996
-674.397
-722.968
-668.178
-657.737
-703.33
-690.089
-649.095
-677.652
-719.808
-678.885
-618.129
-606.222
-666.073
-683.365
-635.117
-634.351
-660.546
-626.769
-633.739
-637.494
-689.147
-652.034
-668.997
-700.315
-699.171
-642.303
-637.947
-673.646
-680.987
-733.436
-760.193
-709.073
-726.958
-676.035
-677.397
-735.006
-698.34
-669.378
-662.458
-672.938
-717.472
-681.985
-691.137
-683.86
-730.997
-746.221
-702.847
-735.482
-683.107
-721.489
-708.503
-660.391
-659.439
-662.699
-641.785
-634.238
-641.452
-663.307
-736.293
-729.002
-682.027
-677.427
-712.671
-765.503
-729.522
-694.429
-733.27
-705.609
-661.316
-642.774
-641.622
-653.232
-698.436
-660.5
-669.142
-672.718
-651.505
-655.324
-681.878
-678.197
-725.519
-683.012
-696.447
-688.897
-727.838
-680.624
-648.408
-645.226
-666.051
-648.725
-657.821
-641.662
-643.029
-671.337
-681.706
-719.051
-687.461
-666.302
-630.019
-635.209
-653.413
-703.506
-670.758
-669.345
-714.713
-674.066
-705.326
-674.89
-691.983
-653.915
-642.096
-628.265
-649.176
-695.713
-673.821
-687.992
-714.686
-720.613
-768.102
-717.543
-683.486
-717.575
-667.192
-661.775
-658.386
-670.392
-690.445
-681.134
-708.113
-773.834
-717.794
-650.698
-632.08
-625.722
-625.592
-629.723
-605.578
-599.885
-602.603
-618.924
-671.343
-714.799
-688.788
-642.701
-621.785
-651.062
-718.538
-696.663
-684.267
-663.187
-666.2
-652.667
-639.211
-647.066
-675.892
-645.34
-650.476
-637.499
-662.777
-615.563
-596.983
-585.547
-614.215
-676.489
-654.543
-683.194
-620.707
-623.985
-667.742
-690.014
-639.755
-639.161
-641.409
-643.187
-640.002
-633.233
-673.6
-660.378
-687.274
-665.706
-712.189
-665.213
-676.679
-689.529
-629.906
-613.681
-632.507
-712.295
-692.389
-728.19
-753.208
-705.944
-683.985
-743.351
-683.114
-654.711
-652.211
-668.635
-713.014
-700.857
-669.037
-709.259
-669.273
-649.427
-702.235
-707.935
-655.654
-662.077
-662.467
-724.464
-768.723
-726.539
-753.058
-712.481
-717.539
-740.356
-745.926
-686.972
-644.03
-638.742
-627.278
-637.499
-648.253
-695.134
-653.78
-656.415
-717.112
-688.226
-716.519
-678.274
-677.541
-624.957
-614.341
-615.58
-638.217
-706.932
-720.934
-647.759
-630.448
-636.773
-660.264
-743.297
-755.138
-713.243
-730.445
-750.7
-690.747
-676.482
-703.148
-719.835
-719.081
-687.924
-725.86
-696.22
-668.439
-698.442
-684.42
-723.075
-732.491
-671.243
-663.899
-651.052
-669.232
-696.677
-715.201
-693.727
-729.637
-699.134
-701.597
-723.777
-782.74
-748.426
-784.012
-741.694
-3480.44
-3479.79
-3476.45
-3469.75
-3463.1
-3456.18
-3445.32
-3432.48
-3415.14
-3394.04
-3375.04
-3353.8
-3328.57
-3300.61
-3271.92
-3244.12
-3214.25
-3181.76
-3150.56
-3120.94
-3091.79
-3062.49
-3034.12
-3005.05
-2977.7
-2951.94
-2929.1
-2905.92
-2881.53
-2858.53
-2836.78
-2821.41
-2809.83
-2800.63
-2796
-2792.52
-2788.16
-2787.36
-2787.79
-2790.32
-2798.59
-2803.6
-2810.04
-2816.94
-2831.24
-2845.31
-2865.39
-2880.26
-2893.24
-2905.72
-2925.11
-2943.9
-2960.22
-2979.27
-3000.43
-3028.15
-3063.51
-3100.1
-3132.42
-3165.73
-3190.85
-3223.48
-3251.44
-3285.81
-3326.73
-3361.37
-3392.09
-3440.19
-3477.53
-3516.37
-3549.91
-3606.07
-3647.39
-3677.05
-3757.73
-3803.22
-3804.52
-3847.61
-3908.35
-3956.61
-3977.3
-4016.07
-4068.29
-4111.44
-4178.85
-4217.52
-4238.96
-4299.19
-4357.49
-4404.5
-4439.9
-4505.83
-4563.51
-4630.66
-4732.91
-4789.87
-4836.28
-4896.01
-4975.66
-5050.12
-5102.39
-5185.6
-5251.64
-5324.15
-5404.11
-5464.46
-5558
-5613.31
-5725.22
-5843.52
-5906.79
-6019.23
-6107.84
-6163.72
-6228.49
-6305.41
-6410.89
-6474.98
-6589.06
-6657.54
-6742.69
-6881.93
-6986.69
-7052.73
-7090.94
-7185.16
-7305.98
-7409.29
-7472.86
-7512.58
-7583.71
-7690.78
-7815.43
-7865.26
-7961.35
-8083.71
-8155.5
-8236.6
-8332.74
-8484.33
-8562.11
-8623.21
-8688.98
-8732.53
-8820.23
-8917.54
-8983.76
-9040.89
-9074.97
-9081.19
-9060.24
-9012.98
-8945.85
-8863.96
-8759.61
-8622.07
-8442.38
-8218.26
-7945.35
-7625.62
-7266.97
-6837.57
-6366.47
-5799.12
-5203.59
-4509.37
-3799.63
-3200.84
-2651.86
-2213.43
-1843.57
-1553.1
-1336.3
-1190.83
-1099.29
-1051.8
-1101.73
-1047.17
-1048.11
-1069.46
-1033.34
-1049.23
-1097.33
-1043.36
-1030.4
-1043.98
-1061.7
-1112.61
-1148.89
-1206.33
-1194.47
-1151.89
-1143.28
-1166.78
-1205.3
-1137.33
-1170.52
-1157.14
-1173.42
-1125.66
-1122.94
-1127.33
-1140.4
-1095.91
-1112.69
-1134.22
-1089.04
-1067.42
-1111.76
-1072.04
-1086.15
-1101.55
-1124.36
-1187.06
-1160.69
-1224.1
-1194.15
-1223.61
-1172.35
-1156.44
-1164.68
-1180.43
-1191.31
-1221.53
-1242.01
-1202.18
-1231.07
-1216.17
-1165.6
-1162.32
-1210.76
-1183.49
-1132.23
-1154.13
-1208.46
-1189.17
-1196.28
-1146.95
-1172.81
-1144.94
-1191.14
-1156.29
-1144.16
-1146.68
-1155.32
-1195.56
-1159.8
-1209.88
-1135.67
-1126.69
-1174.9
-1131.07
-1157.71
-1152.59
-1190.46
-1155.83
-1132.89
-1117.19
-1108.71
-1134.63
-1203.26
-1219.07
-1156.48
-1161.95
-1165.51
-1207.15
-1187.69
-1230.63
-1195.87
-1211.11
-1235.16
-1163.81
-1191.99
-1235.82
-1217.6
-1151.24
-1157.78
-1125.33
-1124.46
-1159.58
-1237.6
-1226.37
-1296.62
-1278.98
-1212.77
-1170.53
-1179.01
-1194.62
-1158.51
-1161.08
-1224.95
-1236.31
-1174.38
-1158.34
-1169.12
-1207.54
-1258.33
-1235.74
-1224.55
-1234.51
-1242.27
-1179.79
-1233.02
-1179.76
-1192.53
-1239.91
-1173.42
-1145.14
-1175.74
-1168.56
-1213.93
-1162.16
-1147.58
-1175.09
-1132.85
-1154.68
-1211.93
-1208.57
-1265.77
-1206.01
-1198.93
-1219.06
-1227.53
-1229.46
-1202.27
-1180.56
-1223.98
-1208.47
-1224.67
-1167.72
-1165.41
-1204.78
-1168.77
-1157.59
-1197.05
-1194.44
-1160.3
-1136.49
-1146.68
-1199.43
-1180.68
-1168.57
-1128.08
-1136.22
-1133.42
-1143.51
-1180.23
-1170.31
-1145.23
-1115.82
-1150.87
-1219.54
-1207.74
-1198.53
-1244.62
-1223.58
-1236.31