/*--------------------------------*- C++ -*----------------------------------*\
| =========                 |                                                 |
| \\      /  F ield         | OpenFOAM: The Open Source CFD Toolbox           |
|  \\    /   O peration     | Version:  v2012                                 |
|   \\  /    A nd           | Website:  www.openfoam.com                      |
|    \\/     M anipulation  |                                                 |
\*---------------------------------------------------------------------------*/
FoamFile
{
    version     2.0;
    format      ascii;
    class       volScalarField;
    location    "500";
    object      p;
}
// * * * * * * * * * * * * * * * * * * * * * * * * * * * * * * * * * * * * * //

dimensions      [1 -1 -2 0 0 0 0];


internalField   nonuniform List<scalar> 
65536
(
157768
157768
157768
157768
157769
157769
157769
157770
157770
157771
157771
157772
157772
157772
157773
157773
157773
157772
157772
157772
157771
157770
157769
157767
157766
157764
157762
157759
157757
157754
157751
157747
157743
157739
157734
157728
157723
157716
157710
157703
157695
157687
157678
157669
157659
157649
157638
157627
157615
157603
157591
157578
157565
157552
157539
157525
157510
157496
157482
157467
157452
157437
157422
157407
157393
157378
157363
157349
157335
157322
157309
157297
157284
157274
157264
157254
157246
157238
157231
157225
157220
157215
157212
157210
157209
157209
157210
157212
157215
157218
157223
157229
157235
157242
157249
157258
157266
157275
157285
157295
157305
157316
157327
157339
157351
157361
157372
157384
157395
157405
157415
157427
157436
157446
157456
157466
157474
157483
157491
157500
157508
157516
157524
157531
157539
157546
157553
157560
157567
157573
157580
157586
157593
157599
157605
157611
157617
157621
157626
157633
157638
157642
157647
157653
157657
157658
157658
157659
157662
157666
157668
157670
157673
157674
157674
157675
157675
157677
157680
157682
157686
157689
157694
157699
157705
157711
157719
157727
157732
157732
157728
157721
157712
157703
157693
157684
157674
157666
157658
157650
157643
157637
157631
157625
157619
157614
157609
157605
157600
157596
157592
157588
157585
157582
157578
157575
157572
157569
157566
157563
157560
157557
157555
157552
157550
157547
157545
157543
157541
157539
157537
157535
157534
157532
157531
157530
157529
157528
157527
157526
157525
157524
157523
157522
157521
157520
157519
157518
157517
157515
157514
157513
157512
157511
157510
157509
157508
157508
157507
157506
157505
157505
157504
157504
157503
157502
157502
157501
157500
157500
157499
157498
157498
157497
157496
157496
157495
157494
157493
157493
157492
157491
157491
157490
157490
157489
157489
157489
157488
157488
157488
157488
157487
157487
157486
157486
157485
157485
157484
157483
157483
157482
157481
157481
157481
157480
157480
157480
157480
157480
157480
157480
157480
157480
157480
157480
157479
157479
157478
157478
157477
157477
157476
157476
157476
157475
157475
157475
157474
157474
157474
157474
157473
157473
157473
157472
157472
157472
157472
157472
157472
157472
157472
157473
157473
157473
157473
157473
157473
157473
157473
157473
157473
157473
157473
157473
157473
157473
157473
157473
157473
157473
157473
157473
157473
157473
157472
157472
157472
157472
157472
157472
157472
157472
157472
157472
157472
157472
157472
157473
157473
157473
157473
157474
157474
157474
157475
157475
157476
157476
157476
157476
157476
157476
157476
157476
157476
157476
157476
157476
157476
157476
157477
157477
157477
157477
157477
157478
157478
157478
157478
157478
157478
157478
157478
157478
157478
157478
157478
157478
157478
157478
157478
157478
157479
157479
157479
157480
157480
157480
157480
157480
157481
157481
157481
157481
157481
157481
157481
157481
157481
157481
157481
157481
157481
157481
157482
157482
157482
157482
157483
157483
157484
157484
157485
157486
157486
157487
157488
157488
157489
157489
157489
157490
157490
157491
157491
157492
157492
157492
157493
157493
157493
157493
157493
157493
157493
157493
157493
157493
157494
157494
157494
157494
157494
157494
157495
157495
157495
157495
157496
157496
157496
157496
157497
157497
157497
157497
157497
157498
157498
157499
157499
157500
157500
157501
157501
157502
157502
157503
157503
157503
157503
157504
157504
157503
157503
157503
157503
157503
157502
157502
157502
157502
157501
157501
157501
157501
157501
157501
157501
157501
156859
156859
156859
156859
156860
156860
156860
156861
156861
156862
156862
156863
156863
156864
156864
156864
156864
156864
156864
156863
156862
156862
156861
156859
156858
156856
156854
156852
156849
156846
156843
156840
156836
156831
156827
156821
156816
156810
156803
156796
156788
156780
156772
156762
156753
156742
156732
156721
156709
156697
156685
156672
156659
156646
156633
156619
156605
156590
156576
156561
156546
156531
156517
156502
156487
156472
156458
156443
156429
156416
156403
156391
156379
156368
156357
156348
156339
156332
156325
156318
156313
156309
156305
156302
156301
156300
156300
156302
156306
156310
156313
156321
156326
156333
156341
156350
156358
156367
156376
156386
156396
156407
156417
156427
156439
156450
156459
156471
156482
156494
156503
156513
156525
156534
156543
156552
156562
156569
156578
156586
156595
156602
156609
156616
156624
156631
156638
156644
156651
156657
156663
156669
156675
156682
156688
156693
156697
156700
156705
156713
156719
156722
156727
156731
156734
156734
156734
156736
156741
156745
156747
156749
156751
156752
156752
156753
156754
156756
156760
156763
156766
156771
156777
156783
156790
156797
156806
156816
156822
156824
156822
156817
156810
156802
156793
156785
156776
156768
156760
156753
156747
156740
156734
156729
156723
156718
156713
156709
156704
156700
156696
156693
156689
156686
156683
156680
156676
156674
156671
156668
156665
156662
156659
156657
156654
156652
156650
156648
156646
156644
156642
156640
156639
156637
156636
156635
156633
156632
156631
156630
156629
156628
156628
156627
156625
156624
156623
156622
156621
156620
156619
156618
156617
156616
156615
156614
156613
156613
156612
156611
156610
156610
156609
156609
156608
156607
156607
156606
156605
156605
156604
156603
156603
156602
156601
156600
156600
156599
156598
156598
156597
156596
156596
156595
156595
156594
156594
156594
156593
156593
156593
156593
156592
156592
156591
156591
156590
156590
156589
156588
156588
156587
156587
156586
156586
156585
156585
156585
156585
156585
156585
156585
156585
156585
156585
156585
156585
156584
156584
156583
156582
156582
156582
156581
156581
156580
156580
156580
156579
156579
156579
156579
156578
156578
156578
156578
156577
156577
156577
156577
156577
156577
156577
156578
156578
156578
156578
156578
156578
156578
156578
156578
156578
156578
156578
156578
156578
156578
156578
156578
156578
156578
156578
156578
156578
156578
156578
156577
156577
156577
156577
156577
156577
156577
156577
156577
156577
156577
156577
156577
156578
156578
156578
156579
156579
156579
156580
156580
156580
156581
156581
156581
156581
156581
156581
156581
156581
156581
156581
156581
156581
156581
156582
156582
156582
156582
156582
156583
156583
156583
156583
156583
156583
156583
156583
156583
156583
156583
156583
156583
156583
156583
156583
156584
156584
156584
156584
156585
156585
156585
156586
156586
156586
156586
156586
156586
156586
156587
156587
156587
156587
156587
156587
156587
156587
156587
156587
156587
156587
156587
156588
156588
156589
156589
156590
156591
156591
156592
156593
156593
156594
156594
156594
156595
156595
156596
156596
156597
156597
156597
156598
156598
156598
156598
156598
156598
156598
156598
156598
156598
156599
156599
156599
156599
156599
156600
156600
156600
156600
156600
156601
156601
156601
156601
156602
156602
156602
156602
156602
156603
156603
156603
156604
156604
156605
156605
156606
156606
156607
156607
156608
156608
156608
156608
156608
156608
156608
156608
156607
156607
156607
156607
156607
156607
156606
156606
156606
156606
156606
156606
156606
156606
155955
155955
155955
155955
155955
155956
155956
155956
155957
155957
155958
155958
155959
155959
155960
155960
155960
155960
155960
155959
155959
155958
155957
155956
155954
155953
155951
155948
155946
155943
155940
155937
155933
155929
155924
155919
155913
155907
155901
155894
155886
155878
155869
155860
155850
155840
155830
155819
155807
155795
155783
155770
155758
155744
155731
155717
155703
155689
155674
155660
155645
155630
155615
155600
155585
155570
155556
155542
155528
155515
155502
155490
155477
155466
155456
155445
155437
155429
155422
155416
155410
155407
155403
155401
155399
155398
155398
155401
155402
155407
155410
155417
155423
155429
155438
155445
155454
155464
155473
155483
155492
155504
155514
155524
155534
155546
155557
155566
155578
155589
155599
155607
155618
155628
155637
155645
155654
155662
155670
155678
155686
155694
155701
155708
155715
155722
155728
155734
155740
155746
155751
155757
155763
155769
155775
155779
155782
155785
155791
155798
155804
155809
155812
155816
155817
155818
155820
155823
155827
155830
155832
155833
155834
155835
155835
155836
155838
155840
155843
155847
155851
155857
155863
155871
155878
155887
155897
155906
155914
155918
155917
155914
155909
155902
155895
155888
155881
155873
155866
155860
155853
155847
155842
155836
155831
155826
155821
155817
155813
155808
155804
155801
155798
155794
155791
155788
155785
155782
155779
155777
155774
155771
155769
155766
155764
155761
155759
155757
155755
155753
155751
155749
155748
155746
155745
155744
155743
155742
155741
155740
155739
155738
155737
155736
155735
155734
155733
155732
155731
155730
155729
155728
155726
155725
155724
155724
155723
155722
155721
155720
155720
155719
155719
155718
155717
155717
155716
155715
155715
155714
155713
155713
155712
155711
155711
155710
155709
155708
155708
155707
155706
155706
155705
155705
155704
155704
155703
155703
155703
155702
155702
155702
155702
155701
155701
155700
155700
155699
155699
155698
155697
155697
155696
155696
155696
155695
155695
155695
155695
155694
155695
155695
155695
155695
155694
155694
155694
155694
155693
155692
155692
155692
155691
155691
155690
155690
155690
155689
155689
155689
155688
155688
155688
155688
155687
155687
155687
155687
155687
155687
155687
155687
155687
155688
155687
155688
155688
155688
155688
155688
155688
155688
155688
155688
155687
155687
155687
155687
155687
155688
155687
155687
155687
155687
155687
155687
155687
155687
155687
155687
155686
155686
155686
155686
155686
155686
155686
155687
155687
155687
155687
155687
155687
155688
155688
155688
155689
155689
155689
155690
155690
155690
155690
155690
155690
155690
155690
155690
155691
155691
155691
155691
155691
155691
155691
155692
155692
155692
155692
155692
155692
155692
155693
155693
155693
155693
155693
155693
155693
155693
155693
155693
155693
155693
155693
155694
155694
155695
155695
155695
155695
155695
155695
155695
155696
155696
155696
155696
155696
155696
155696
155696
155696
155696
155696
155696
155697
155697
155697
155697
155698
155698
155698
155699
155699
155700
155701
155701
155702
155702
155703
155703
155704
155704
155705
155705
155706
155706
155707
155707
155708
155708
155708
155708
155708
155708
155708
155708
155708
155708
155708
155709
155709
155709
155709
155709
155709
155709
155710
155710
155710
155710
155710
155711
155711
155711
155711
155711
155712
155712
155712
155713
155713
155714
155714
155715
155715
155716
155716
155716
155717
155717
155717
155718
155717
155717
155717
155717
155717
155717
155716
155716
155716
155716
155716
155716
155715
155715
155715
155716
155716
155716
155055
155055
155055
155055
155055
155056
155056
155056
155057
155058
155058
155059
155059
155060
155060
155060
155060
155061
155060
155060
155060
155059
155058
155057
155055
155054
155052
155050
155048
155045
155042
155039
155035
155031
155026
155021
155015
155009
155003
154996
154988
154980
154971
154962
154953
154942
154932
154921
154910
154898
154886
154873
154860
154847
154834
154820
154806
154791
154777
154762
154747
154732
154717
154702
154687
154672
154658
154644
154630
154616
154604
154591
154579
154567
154558
154546
154536
154530
154522
154516
154508
154507
154502
154501
154500
154498
154499
154502
154502
154506
154512
154516
154522
154529
154538
154545
154553
154563
154573
154582
154592
154603
154614
154623
154634
154644
154656
154665
154676
154686
154696
154705
154715
154724
154733
154741
154750
154758
154766
154773
154781
154788
154795
154802
154809
154815
154822
154828
154834
154839
154845
154850
154856
154861
154867
154872
154875
154878
154884
154889
154894
154898
154901
154905
154907
154909
154911
154914
154917
154919
154920
154921
154922
154922
154923
154925
154926
154929
154932
154935
154940
154947
154954
154963
154971
154981
154991
155001
155010
155014
155016
155015
155011
155006
155000
154994
154988
154982
154975
154970
154963
154958
154952
154947
154942
154937
154933
154929
154924
154920
154916
154913
154910
154907
154904
154900
154897
154895
154892
154889
154887
154884
154882
154879
154877
154874
154872
154870
154868
154866
154864
154863
154861
154859
154858
154857
154856
154855
154854
154853
154852
154851
154851
154849
154848
154847
154846
154845
154844
154843
154842
154841
154840
154839
154838
154837
154836
154835
154834
154834
154833
154833
154832
154832
154831
154830
154830
154829
154828
154828
154827
154827
154826
154825
154824
154823
154823
154822
154821
154820
154820
154820
154819
154818
154818
154817
154817
154817
154816
154816
154816
154816
154815
154815
154815
154814
154813
154813
154812
154812
154811
154811
154810
154810
154810
154809
154809
154809
154808
154808
154808
154808
154808
154808
154808
154808
154808
154807
154807
154806
154806
154805
154805
154805
154804
154804
154803
154803
154803
154802
154802
154802
154802
154801
154801
154801
154801
154801
154801
154801
154801
154801
154801
154801
154801
154801
154801
154801
154801
154801
154801
154801
154801
154801
154801
154801
154801
154801
154801
154801
154801
154801
154800
154800
154801
154800
154800
154800
154800
154800
154800
154799
154799
154799
154799
154799
154800
154800
154800
154800
154800
154800
154801
154801
154802
154802
154802
154802
154802
154803
154803
154803
154803
154803
154803
154803
154804
154804
154804
154804
154804
154804
154804
154805
154805
154805
154805
154805
154806
154806
154806
154806
154806
154806
154806
154806
154806
154806
154806
154806
154806
154807
154807
154807
154807
154807
154808
154808
154808
154808
154809
154808
154809
154809
154809
154809
154810
154810
154810
154810
154810
154810
154810
154810
154810
154810
154810
154811
154811
154811
154811
154812
154812
154813
154813
154814
154814
154815
154816
154816
154817
154817
154818
154818
154819
154819
154820
154820
154820
154821
154821
154822
154822
154822
154822
154822
154822
154822
154822
154822
154822
154822
154822
154823
154823
154823
154823
154823
154824
154823
154823
154824
154824
154824
154824
154825
154825
154825
154825
154825
154826
154826
154827
154827
154828
154828
154828
154829
154830
154830
154830
154830
154830
154831
154831
154831
154830
154830
154829
154829
154829
154829
154829
154829
154829
154828
154829
154829
154829
154829
154829
154829
154159
154159
154160
154160
154160
154160
154161
154161
154162
154162
154163
154164
154164
154165
154165
154166
154166
154166
154166
154166
154165
154165
154164
154163
154161
154160
154158
154156
154154
154151
154148
154145
154141
154137
154133
154128
154122
154116
154109
154102
154095
154087
154078
154069
154059
154049
154039
154028
154017
154005
153993
153980
153967
153954
153940
153927
153913
153898
153884
153869
153854
153839
153824
153809
153793
153779
153764
153750
153736
153722
153709
153697
153684
153672
153663
153651
153641
153634
153628
153620
153614
153611
153608
153605
153605
153604
153606
153608
153609
153612
153618
153622
153627
153635
153643
153649
153656
153667
153676
153684
153695
153707
153717
153725
153737
153748
153758
153767
153779
153787
153796
153806
153816
153825
153833
153841
153850
153858
153866
153874
153881
153888
153895
153902
153908
153914
153920
153927
153932
153937
153943
153948
153953
153958
153963
153968
153973
153977
153982
153985
153989
153992
153995
153999
154001
154003
154005
154008
154010
154011
154012
154013
154014
154015
154015
154016
154018
154021
154023
154026
154032
154040
154049
154058
154068
154078
154089
154100
154109
154114
154117
154117
154116
154113
154108
154104
154098
154093
154087
154082
154077
154072
154066
154061
154057
154052
154048
154044
154040
154036
154032
154029
154026
154023
154020
154017
154014
154011
154009
154006
154003
154000
153998
153996
153993
153991
153989
153987
153985
153983
153981
153980
153978
153977
153975
153975
153973
153972
153971
153970
153969
153968
153968
153967
153966
153964
153963
153962
153961
153960
153959
153958
153957
153956
153955
153954
153953
153953
153952
153951
153951
153950
153950
153949
153948
153948
153947
153946
153946
153945
153944
153944
153943
153942
153941
153940
153940
153940
153939
153939
153938
153937
153937
153936
153936
153935
153935
153934
153933
153933
153933
153933
153933
153932
153932
153931
153931
153930
153930
153929
153929
153929
153928
153928
153927
153927
153927
153927
153926
153926
153926
153926
153925
153925
153925
153925
153925
153925
153924
153924
153923
153923
153922
153922
153922
153921
153921
153920
153920
153920
153920
153919
153919
153918
153918
153918
153918
153918
153918
153919
153919
153919
153919
153918
153918
153918
153918
153918
153918
153918
153918
153918
153918
153918
153918
153918
153918
153918
153918
153918
153918
153918
153918
153918
153918
153918
153918
153918
153918
153917
153917
153916
153916
153917
153917
153917
153917
153917
153917
153917
153917
153918
153918
153918
153918
153918
153919
153919
153919
153919
153919
153919
153920
153920
153920
153920
153920
153920
153921
153921
153921
153921
153922
153922
153922
153922
153922
153922
153923
153923
153923
153923
153923
153923
153923
153923
153924
153924
153924
153924
153924
153924
153924
153925
153925
153925
153926
153926
153926
153926
153925
153926
153927
153927
153927
153927
153927
153927
153927
153927
153928
153928
153928
153928
153928
153928
153928
153929
153929
153929
153929
153929
153930
153930
153931
153931
153932
153933
153933
153933
153934
153934
153935
153936
153936
153937
153937
153938
153938
153939
153939
153939
153940
153940
153940
153940
153939
153939
153939
153939
153939
153940
153940
153940
153940
153940
153941
153940
153941
153941
153941
153941
153941
153942
153942
153942
153942
153942
153942
153943
153943
153943
153944
153944
153945
153945
153945
153946
153946
153946
153947
153947
153947
153947
153947
153948
153947
153947
153947
153946
153947
153947
153947
153947
153946
153946
153946
153946
153947
153947
153947
153947
153269
153269
153269
153269
153270
153270
153270
153271
153271
153272
153273
153273
153274
153275
153275
153276
153276
153276
153276
153276
153276
153275
153275
153274
153272
153271
153269
153267
153265
153262
153260
153256
153253
153248
153244
153239
153233
153227
153221
153214
153206
153198
153189
153180
153171
153161
153150
153139
153128
153116
153104
153092
153078
153065
153051
153038
153024
153010
152995
152980
152965
152950
152934
152919
152904
152889
152874
152861
152846
152832
152819
152807
152794
152781
152772
152761
152750
152743
152737
152729
152723
152719
152716
152712
152712
152711
152713
152714
152716
152719
152724
152728
152733
152741
152748
152754
152762
152773
152781
152790
152802
152814
152821
152831
152843
152853
152861
152872
152884
152891
152900
152911
152920
152929
152937
152946
152954
152962
152970
152978
152983
152991
152998
153005
153010
153017
153023
153029
153034
153039
153044
153049
153054
153058
153063
153069
153073
153077
153081
153085
153088
153092
153094
153097
153099
153101
153103
153104
153106
153107
153108
153108
153109
153109
153109
153111
153114
153116
153118
153121
153128
153136
153146
153157
153168
153179
153192
153203
153212
153219
153223
153224
153224
153222
153219
153216
153212
153207
153202
153198
153193
153188
153183
153178
153174
153170
153166
153162
153159
153155
153152
153149
153145
153142
153139
153136
153133
153131
153128
153125
153122
153121
153119
153116
153114
153112
153109
153107
153105
153103
153102
153100
153099
153097
153096
153095
153094
153093
153092
153091
153090
153089
153088
153087
153086
153085
153084
153083
153082
153081
153080
153079
153078
153077
153076
153075
153074
153073
153073
153072
153072
153071
153070
153069
153069
153068
153068
153068
153067
153066
153065
153065
153064
153063
153063
153062
153062
153061
153061
153060
153059
153058
153058
153057
153057
153056
153056
153056
153055
153055
153054
153054
153053
153053
153053
153052
153052
153052
153051
153051
153050
153050
153050
153049
153049
153049
153048
153048
153048
153047
153047
153047
153047
153046
153046
153046
153046
153046
153045
153044
153044
153044
153044
153043
153043
153042
153042
153042
153041
153041
153041
153040
153040
153040
153040
153039
153039
153039
153039
153039
153040
153040
153040
153040
153040
153040
153040
153040
153040
153039
153039
153039
153039
153039
153039
153039
153039
153039
153039
153039
153039
153039
153039
153039
153039
153039
153038
153039
153038
153038
153038
153039
153038
153039
153039
153039
153038
153038
153038
153038
153038
153038
153039
153038
153039
153039
153039
153040
153040
153039
153040
153040
153041
153040
153041
153042
153042
153042
153042
153042
153042
153042
153042
153042
153043
153043
153043
153043
153044
153043
153043
153043
153044
153044
153044
153044
153044
153045
153045
153045
153045
153045
153045
153046
153046
153046
153046
153046
153046
153047
153047
153047
153047
153047
153048
153047
153047
153048
153048
153048
153049
153049
153049
153049
153049
153049
153050
153050
153051
153051
153051
153051
153051
153051
153052
153052
153053
153054
153053
153054
153055
153056
153057
153057
153058
153058
153058
153059
153060
153060
153060
153061
153061
153061
153061
153061
153061
153061
153060
153061
153060
153061
153061
153061
153062
153062
153062
153062
153062
153062
153062
153062
153062
153063
153063
153063
153063
153063
153063
153064
153064
153065
153065
153066
153066
153066
153066
153066
153067
153067
153067
153068
153067
153067
153068
153068
153068
153067
153067
153068
153068
153068
153067
153067
153068
153068
153068
153068
153068
153068
153068
153068
152383
152383
152383
152384
152384
152384
152385
152385
152386
152387
152387
152388
152389
152390
152390
152391
152391
152391
152392
152392
152391
152391
152390
152389
152388
152387
152385
152383
152381
152378
152375
152372
152368
152364
152360
152355
152349
152343
152336
152329
152321
152313
152305
152295
152286
152276
152266
152255
152243
152232
152220
152207
152194
152180
152167
152153
152139
152125
152110
152096
152080
152064
152048
152033
152018
152003
151988
151974
151960
151945
151932
151919
151906
151893
151883
151872
151863
151854
151849
151841
151835
151829
151826
151824
151822
151822
151823
151823
151826
151830
151835
151839
151845
151852
151858
151864
151874
151884
151892
151901
151914
151924
151932
151941
151954
151962
151971
151982
151993
152000
152010
152022
152030
152038
152046
152055
152063
152071
152080
152085
152092
152099
152107
152112
152117
152124
152130
152135
152139
152145
152151
152155
152160
152164
152169
152174
152177
152182
152186
152189
152191
152195
152197
152199
152201
152203
152204
152205
152207
152208
152208
152208
152208
152209
152209
152212
152214
152216
152219
152222
152229
152238
152249
152261
152273
152286
152298
152311
152320
152327
152332
152335
152336
152335
152334
152331
152328
152324
152320
152316
152312
152307
152304
152299
152296
152292
152288
152284
152281
152278
152275
152272
152268
152265
152262
152258
152255
152254
152251
152248
152247
152244
152242
152240
152237
152235
152233
152231
152229
152228
152226
152224
152223
152221
152220
152219
152218
152217
152216
152216
152215
152213
152213
152211
152210
152210
152208
152207
152206
152205
152204
152203
152202
152201
152200
152199
152198
152198
152197
152196
152196
152195
152194
152194
152193
152192
152192
152192
152191
152191
152190
152189
152188
152187
152187
152186
152186
152185
152184
152184
152184
152184
152183
152182
152182
152181
152180
152180
152179
152180
152179
152178
152178
152178
152177
152177
152176
152176
152176
152175
152175
152175
152174
152174
152173
152173
152173
152173
152172
152172
152172
152171
152171
152170
152171
152171
152170
152170
152170
152169
152168
152168
152168
152168
152167
152167
152167
152166
152166
152166
152166
152165
152165
152164
152164
152164
152164
152164
152164
152164
152163
152164
152164
152164
152164
152164
152164
152164
152164
152164
152164
152164
152163
152164
152164
152164
152164
152164
152163
152164
152163
152163
152163
152164
152163
152163
152163
152163
152163
152164
152163
152164
152163
152163
152163
152163
152163
152162
152163
152163
152163
152163
152163
152163
152163
152163
152164
152164
152164
152164
152165
152164
152164
152164
152166
152165
152166
152166
152166
152166
152166
152166
152167
152167
152167
152167
152167
152167
152167
152168
152168
152168
152168
152168
152169
152169
152169
152169
152169
152170
152170
152170
152170
152171
152171
152171
152171
152172
152171
152172
152172
152172
152172
152172
152171
152171
152171
152172
152172
152173
152173
152173
152173
152174
152174
152174
152175
152175
152175
152176
152175
152176
152176
152176
152177
152177
152178
152179
152178
152179
152180
152180
152181
152182
152183
152183
152184
152184
152185
152185
152185
152186
152185
152185
152184
152185
152185
152185
152185
152185
152185
152185
152186
152186
152187
152186
152187
152186
152187
152187
152187
152187
152187
152188
152188
152188
152188
152188
152189
152188
152189
152189
152190
152190
152190
152191
152191
152191
152191
152192
152192
152192
152192
152192
152192
152192
152192
152193
152192
152193
152192
152192
152192
152192
152193
152193
152192
152193
152193
152193
152193
152192
151502
151502
151503
151503
151503
151504
151504
151505
151505
151506
151507
151508
151508
151509
151510
151511
151511
151511
151512
151512
151512
151511
151511
151510
151509
151507
151506
151504
151501
151499
151496
151492
151488
151484
151480
151474
151469
151462
151456
151449
151441
151433
151424
151415
151405
151395
151385
151375
151363
151351
151339
151327
151314
151300
151286
151273
151259
151244
151230
151215
151199
151182
151166
151151
151137
151121
151106
151092
151078
151062
151048
151035
151021
151008
150996
150987
150977
150970
150963
150955
150949
150942
150941
150938
150935
150936
150936
150937
150940
150944
150949
150953
150959
150966
150972
150979
150989
150998
151006
151015
151027
151036
151043
151053
151066
151074
151083
151096
151105
151114
151124
151135
151142
151150
151160
151167
151174
151182
151191
151196
151202
151211
151218
151222
151228
151236
151241
151247
151251
151257
151261
151266
151271
151275
151279
151283
151286
151290
151294
151296
151298
151301
151303
151305
151307
151308
151309
151310
151311
151312
151312
151312
151312
151313
151314
151316
151318
151321
151324
151328
151335
151345
151356
151369
151383
151396
151410
151422
151432
151440
151446
151450
151452
151452
151452
151450
151448
151444
151441
151437
151434
151430
151427
151424
151420
151417
151413
151410
151407
151404
151401
151397
151394
151391
151388
151386
151383
151381
151378
151376
151374
151372
151370
151368
151365
151362
151361
151359
151357
151355
151354
151352
151350
151349
151348
151347
151346
151346
151345
151343
151342
151341
151340
151339
151338
151337
151336
151336
151334
151333
151332
151331
151330
151329
151328
151327
151327
151326
151325
151324
151324
151323
151322
151322
151321
151320
151320
151320
151319
151318
151317
151317
151315
151316
151315
151315
151314
151314
151313
151313
151312
151311
151311
151310
151310
151310
151309
151308
151309
151308
151307
151307
151306
151306
151305
151305
151305
151305
151304
151304
151303
151303
151302
151302
151301
151300
151300
151300
151300
151300
151300
151300
151299
151299
151299
151299
151298
151297
151297
151297
151297
151297
151296
151296
151295
151295
151295
151294
151294
151293
151293
151293
151293
151293
151292
151292
151292
151292
151292
151292
151292
151292
151292
151292
151292
151292
151292
151293
151293
151293
151292
151291
151292
151292
151292
151291
151292
151291
151292
151292
151292
151290
151291
151291
151291
151292
151291
151291
151292
151292
151292
151292
151292
151291
151291
151291
151290
151290
151290
151290
151290
151291
151290
151290
151291
151291
151291
151291
151291
151291
151292
151292
151293
151293
151293
151293
151294
151293
151294
151294
151294
151294
151294
151294
151293
151294
151294
151295
151294
151295
151297
151296
151296
151296
151296
151297
151297
151298
151298
151298
151299
151299
151298
151298
151298
151299
151300
151300
151300
151300
151301
151300
151300
151300
151299
151300
151300
151300
151300
151301
151301
151301
151302
151302
151303
151303
151303
151303
151303
151304
151304
151306
151305
151304
151305
151306
151307
151308
151308
151308
151308
151308
151309
151309
151311
151311
151312
151312
151313
151312
151313
151313
151313
151313
151313
151314
151314
151313
151313
151312
151313
151313
151314
151314
151314
151314
151314
151315
151315
151315
151315
151316
151316
151316
151316
151316
151318
151317
151318
151317
151318
151318
151317
151318
151319
151319
151319
151319
151319
151319
151319
151319
151320
151321
151320
151320
151320
151321
151321
151320
151320
151320
151320
151320
151320
151319
151320
151320
151319
151320
151319
151320
150626
150626
150626
150627
150627
150627
150628
150629
150629
150630
150631
150632
150633
150634
150634
150635
150636
150636
150636
150636
150636
150636
150636
150635
150634
150632
150630
150628
150626
150623
150620
150617
150613
150608
150603
150598
150592
150586
150579
150572
150564
150556
150547
150538
150528
150518
150509
150499
150487
150475
150462
150450
150437
150423
150409
150395
150381
150367
150352
150337
150320
150303
150288
150272
150257
150242
150227