/*--------------------------------*- C++ -*----------------------------------*\
| =========                 |                                                 |
| \\      /  F ield         | OpenFOAM: The Open Source CFD Toolbox           |
|  \\    /   O peration     | Version:  v2012                                 |
|   \\  /    A nd           | Website:  www.openfoam.com                      |
|    \\/     M anipulation  |                                                 |
\*---------------------------------------------------------------------------*/
FoamFile
{
    version     2.0;
    format      ascii;
    class       volScalarField;
    location    "500";
    object      p_rgh;
}
// * * * * * * * * * * * * * * * * * * * * * * * * * * * * * * * * * * * * * //

dimensions      [1 -1 -2 0 0 0 0];


internalField   nonuniform List<scalar> 
65536
(
58223.5
58223.7
58223.8
58224.1
58224.3
58224.7
58225
58225.3
58225.8
58226.2
58226.7
58227.1
58227.5
58227.8
58228
58228.1
58228
58227.8
58227.4
58226.8
58226
58225
58223.8
58222.4
58220.7
58218.8
58216.6
58214.3
58211.8
58208.9
58205.6
58202
58198
58193.4
58188.5
58183
58177.2
58171
58164.4
58157.2
58149.6
58141.4
58132.7
58123.4
58113.7
58103.3
58092.4
58081.1
58069.4
58057.4
58045.2
58032.5
58019.5
58006.1
57992.5
57978.6
57964.4
57950
57935.4
57920.8
57906
57891.1
57876.1
57861.1
57846.2
57831.5
57817
57802.7
57788.7
57775.6
57762.7
57750.5
57738
57728.1
57717.7
57708.1
57699.3
57691.9
57685
57678.5
57673.5
57668.9
57666
57663.9
57662.9
57662.4
57664.2
57665.9
57669.4
57672.6
57677.4
57683.4
57689.6
57696.3
57703.6
57712.8
57721
57730.2
57739.5
57750
57760.1
57771.1
57782.1
57794.1
57806.3
57816.7
57827.5
57839.7
57850.9
57861.8
57871.6
57883.1
57893.2
57903.3
57912.7
57922.9
57931.6
57940.5
57948.8
57957.6
57965.9
57974.1
57981.8
57989.8
57997.4
58004.7
58011.8
58018.7
58025.6
58032.4
58038.9
58045.5
58052.3
58058.7
58064.9
58071.4
58076.8
58081.1
58086.2
58093.1
58099
58103.1
58108.3
58114.5
58118.4
58119
58118.9
58120.3
58123.6
58127.2
58129.5
58131.6
58134.1
58135.6
58135.9
58136.1
58136.4
58137.8
58140.5
58143
58145.8
58148.8
58152.7
58157.3
58162.2
58167.7
58174.6
58181.6
58185.9
58185.4
58180.3
58172.6
58163.1
58153.2
58143
58133.2
58123.8
58115.1
58107
58099.5
58092.4
58085.8
58079.5
58073.7
58068.2
58063
58058.2
58053.5
58049.2
58044.9
58041
58037.3
58033.8
58030.4
58027.1
58023.9
58020.8
58017.8
58014.8
58011.9
58009
58006.2
58003.5
58001
57998.4
57996.2
57993.8
57991.8
57989.7
57987.8
57985.9
57984.3
57982.6
57981.2
57979.8
57978.6
57977.4
57976.3
57975.3
57974.3
57973.3
57972.3
57971.4
57970.3
57969.3
57968.3
57967.4
57966.3
57965.3
57964.2
57963.2
57962.1
57961
57960
57959
57958
57957.1
57956.4
57955.6
57954.8
57954.1
57953.4
57952.8
57952.2
57951.5
57950.9
57950.2
57949.5
57948.8
57948.2
57947.5
57946.9
57946.2
57945.5
57944.9
57944.2
57943.4
57942.7
57941.9
57941.2
57940.5
57939.8
57939.2
57938.7
57938.2
57937.9
57937.6
57937.3
57937.1
57936.9
57936.6
57936.3
57935.9
57935.4
57935
57934.5
57933.9
57933.2
57932.6
57931.9
57931.3
57930.6
57930.1
57929.6
57929.2
57928.8
57928.5
57928.4
57928.3
57928.3
57928.4
57928.5
57928.6
57928.6
57928.5
57928.3
57927.9
57927.6
57927
57926.5
57926
57925.5
57925
57924.7
57924.3
57923.9
57923.6
57923.3
57922.9
57922.7
57922.4
57922.1
57922
57921.6
57921.4
57921.1
57920.8
57920.6
57920.4
57920.4
57920.5
57920.7
57920.9
57921.2
57921.4
57921.6
57921.8
57921.9
57922
57921.9
57921.8
57921.7
57921.7
57921.6
57921.6
57921.6
57921.7
57921.7
57921.8
57921.8
57921.8
57921.7
57921.6
57921.5
57921.4
57921.2
57921.1
57920.9
57920.8
57920.6
57920.5
57920.4
57920.3
57920.3
57920.3
57920.4
57920.6
57920.8
57920.9
57921.2
57921.4
57921.7
57922.1
57922.4
57922.9
57923.1
57923.6
57923.9
57924.2
57924.4
57924.6
57924.7
57924.7
57924.7
57924.7
57924.6
57924.6
57924.6
57924.6
57924.6
57924.8
57924.9
57925.1
57925.4
57925.6
57925.9
57926.1
57926.2
57926.4
57926.5
57926.6
57926.7
57926.8
57926.9
57926.9
57926.9
57926.7
57926.6
57926.4
57926.3
57926.3
57926.4
57926.6
57926.8
57927.1
57927.4
57927.8
57928.1
57928.4
57928.6
57928.9
57929
57929.2
57929.4
57929.6
57929.8
57930
57930
57930.1
57930
57930
57930
57929.9
57929.9
57929.9
57930
57930.1
57930.4
57930.6
57930.9
57931.2
57931.7
57932.2
57932.9
57933.5
57934.2
57935
57935.6
57936.2
57936.7
57937.2
57937.6
57938.1
57938.4
57939
57939.4
57939.9
57940.2
57940.6
57941
57941.3
57941.6
57941.7
57941.7
57941.8
57941.8
57941.8
57941.8
57941.9
57942
57942.2
57942.3
57942.5
57942.6
57942.9
57943
57943.3
57943.4
57943.7
57943.8
57944.1
57944.3
57944.7
57944.9
57945.2
57945.4
57945.7
57945.9
57946.1
57946.4
57946.8
57947.2
57947.8
57948.3
57948.9
57949.4
57949.9
57950.5
57951
57951.4
57951.7
57952.1
57952.2
57952.4
57952.3
57952.2
57951.8
57951.6
57951.4
57951.2
57951
57950.9
57950.7
57950.5
57950.2
57950
57949.8
57949.9
57949.9
57950.1
57950.2
57950.3
58218.5
58218.6
58218.7
58218.9
58219.2
58219.5
58219.8
58220.2
58220.6
58221.1
58221.5
58221.9
58222.3
58222.6
58222.8
58222.9
58222.8
58222.6
58222.2
58221.6
58220.8
58219.8
58218.6
58217.2
58215.5
58213.7
58211.5
58209.1
58206.5
58203.6
58200.3
58196.7
58192.7
58188.2
58183.2
58177.9
58172.1
58165.9
58159.2
58152
58144.2
58136
58127.3
58118
58108.2
58097.9
58087
58075.7
58064.1
58052.2
58039.8
58027.1
58013.9
58000.6
57987.1
57973.2
57958.9
57944.5
57929.9
57915.3
57900.3
57885.3
57870.3
57855.3
57840.4
57825.7
57811.1
57796.7
57782.8
57769.9
57756.7
57744.4
57732.1
57721.4
57710.7
57701
57693
57685.2
57678.9
57671.9
57667.2
57662.7
57659.1
57656.3
57655.2
57654.4
57655
57657
57660.8
57665.2
57668.2
57676
57682.2
57689
57697.5
57706.2
57715
57724.3
57733.9
57743.8
57753.9
57765.2
57775.6
57786.6
57798.4
57810.3
57819.5
57831.5
57843.7
57855.3
57864.8
57875.8
57887.5
57897
57906.9
57916.5
57926.5
57934.4
57943.1
57951.7
57961.1
57968.7
57976.5
57984.2
57992.6
57999.5
58006.8
58013.6
58020.7
58027.6
58033.8
58040.3
58047.1
58053.7
58060
58065.9
58070.6
58074
58079.3
58087.2
58093.5
58097.7
58102.1
58106.8
58109.6
58109.9
58110.3
58113.1
58117.9
58122.2
58124.5
58126.1
58127.9
58128.8
58128.9
58129.4
58130.1
58132.4
58135.4
58137.9
58140.4
58143.2
58147.1
58151.7
58155.8
58160.5
58166.4
58172.7
58176.5
58175.8
58171
58163.8
58154.8
58145.3
58135.6
58126.2
58117.2
58108.8
58100.9
58093.6
58086.6
58080.2
58074
58068.3
58062.9
58057.8
58053
58048.3
58044
58039.9
58035.9
58032.3
58028.8
58025.5
58022.2
58019.1
58015.9
58013
58010
58007
58004.3
58001.4
57998.8
57996.2
57993.7
57991.5
57989.2
57987.2
57985.1
57983.2
57981.2
57979.6
57978
57976.6
57975.1
57973.9
57972.7
57971.6
57970.5
57969.6
57968.6
57967.6
57966.7
57965.7
57964.7
57963.6
57962.5
57961.3
57960.4
57959.2
57958.3
57957.2
57956.3
57955.3
57954.4
57953.3
57952.4
57951.6
57950.8
57950
57949.4
57948.8
57948.1
57947.5
57946.8
57946.2
57945.4
57944.8
57944.1
57943.4
57942.8
57942.2
57941.5
57940.7
57940.1
57939.3
57938.6
57937.9
57937.1
57936.5
57935.7
57935.2
57934.5
57934
57933.5
57933.1
57932.8
57932.7
57932.3
57932.1
57932
57931.7
57931.3
57930.9
57930.4
57929.9
57929.3
57928.7
57928
57927.3
57926.7
57926.1
57925.5
57925.1
57924.6
57924.2
57924.2
57924
57923.8
57923.8
57923.7
57923.8
57923.7
57923.7
57923.7
57923.6
57923.4
57923.1
57922.5
57922
57921.3
57920.8
57920.4
57920
57919.6
57919.3
57919
57918.7
57918.3
57918
57917.8
57917.6
57917.4
57917.1
57916.9
57916.5
57916.3
57916.1
57916
57915.9
57915.9
57916.1
57916.3
57916.3
57916.6
57916.8
57917
57917.1
57917.1
57917.1
57917
57916.9
57916.9
57916.9
57916.8
57916.9
57917
57916.9
57917
57916.9
57916.9
57916.9
57916.8
57916.7
57916.6
57916.4
57916.4
57916.1
57916
57915.9
57915.7
57915.4
57915.4
57915.4
57915.6
57915.8
57916
57916.2
57916.3
57916.4
57916.7
57917
57917.4
57917.6
57918.2
57918.4
57918.8
57919.2
57919.4
57919.6
57919.7
57919.6
57919.7
57919.7
57919.7
57919.7
57919.7
57919.7
57919.7
57919.8
57920
57920.3
57920.6
57920.8
57921.1
57921.3
57921.4
57921.5
57921.6
57921.8
57921.9
57922
57922.1
57922.2
57922.2
57922.3
57922.1
57922
57921.7
57921.6
57921.6
57921.7
57922
57922.3
57922.5
57922.8
57923.2
57923.4
57923.8
57923.9
57924.3
57924.3
57924.7
57924.8
57925.1
57925.1
57925.3
57925.4
57925.4
57925.4
57925.4
57925.4
57925.3
57925.3
57925.3
57925.4
57925.5
57925.9
57926
57926.3
57926.6
57927
57927.5
57928.1
57928.8
57929.5
57930.3
57930.8
57931.6
57931.9
57932.5
57932.9
57933.3
57933.9
57934.4
57934.7
57935.2
57935.6
57936
57936.4
57936.7
57936.8
57937.1
57937.2
57937.2
57937.2
57937.1
57937.1
57937.2
57937.2
57937.5
57937.5
57937.8
57938
57938.3
57938.4
57938.6
57938.8
57939.1
57939.2
57939.5
57939.7
57939.9
57940.2
57940.5
57940.8
57941.2
57941.2
57941.4
57941.7
57942
57942.6
57943.1
57943.6
57944.3
57944.7
57945.2
57945.6
57946.2
57946.6
57946.9
57947.2
57947.3
57947.4
57947.3
57947.3
57947
57946.9
57946.5
57946.3
57946.2
57946
57945.9
57945.7
57945.3
57945.2
57945.1
57945.2
57945.4
57945.6
57945.7
57945.8
58208.9
58209
58209.1
58209.3
58209.5
58209.8
58210.1
58210.5
58210.9
58211.3
58211.7
58212.1
58212.5
58212.8
58212.9
58213
58212.9
58212.7
58212.3
58211.7
58210.9
58209.9
58208.7
58207.3
58205.6
58203.7
58201.6
58199.2
58196.5
58193.5
58190.3
58186.6
58182.6
58178.1
58173.2
58167.9
58162.1
58155.9
58149.2
58141.9
58134
58125.7
58117
58107.7
58097.8
58087.4
58076.6
58065.5
58053.9
58042
58029.6
58016.7
58003.6
57990.3
57976.8
57962.9
57948.6
57934.2
57919.6
57904.9
57889.8
57874.7
57859.8
57844.7
57829.8
57814.8
57800.6
57786.4
57772.4
57759.1
57746.6
57734
57721.5
57710.8
57700.1
57689.7
57681.7
57674.1
57667
57660.6
57655.3
57652.7
57648.5
57646.6
57645.4
57644.2
57644.5
57647
57649
57654.1
57658.1
57664.9
57671.3
57677.8
57687.2
57695.2
57704.6
57714.3
57724.6
57734.5
57744.8
57756.5
57767.8
57778.7
57789.6
57801.7
57813
57823.5
57835.6
57846.9
57857.7
57867
57878.9
57889.2
57898.7
57907.7
57917.4
57926.4
57934.8
57943.3
57952.3
57960.5
57968.4
57976
57984.3
57991.7
57998.6
58005.5
58012.6
58019
58025.1
58031.4
58038.2
58044.5
58050.9
58056.2
58059.6
58063.3
58069.9
58077.7
58084.6
58089.3
58093.5
58097
58099.2
58100.3
58102.5
58105.9
58110.4
58114.1
58116.1
58117.3
58118.3
58119
58119.3
58120.1
58120.9
58122.8
58125.5
58127.9
58129.9
58132.9
58136.3
58140.6
58143.5
58147.4
58152
58156.7
58159.3
58157.9
58153.5
58147.1
58139
58130.5
58121.7
58113.2
58104.9
58097.2
58089.7
58082.7
58076.1
58070
58064
58058.3
58053.1
58048
58043.3
58038.8
58034.6
58030.3
58026.4
58023.1
58019.7
58016.4
58013
58009.9
58007.2
58004
58001.2
57998.5
57995.6
57993.1
57990.4
57987.7
57985.4
57983
57980.7
57978.7
57976.5
57974.6
57972.9
57971.2
57969.6
57968.2
57966.7
57965.7
57964.4
57963.3
57962.3
57961.3
57960.4
57959.3
57958.5
57957.2
57956.3
57955
57954.2
57953
57952
57951
57949.9
57948.9
57947.7
57946.8
57945.6
57945
57943.9
57943.2
57942.4
57941.7
57941.1
57940.4
57939.9
57939.4
57938.4
57937.8
57937.3
57936.2
57935.4
57934.9
57934.1
57933.5
57932.7
57932.2
57931.4
57930.8
57930.1
57929.4
57928.8
57928.1
57927.4
57926.6
57926.2
57925.7
57925.2
57924.9
57924.4
57924.2
57924
57923.7
57923.4
57923.1
57922.9
57922.3
57922
57921.6
57921.2
57920.6
57919.9
57919.2
57918.4
57917.9
57917.3
57916.9
57916.4
57916.3
57915.7
57915.5
57915.4
57915.2
57915.4
57915.2
57915.3
57915.4
57915
57915
57914.7
57914.4
57913.8
57913.2
57912.8
57912.4
57911.8
57911.5
57911.3
57910.9
57910.6
57910.3
57909.9
57909.6
57909.4
57909
57909.1
57908.7
57908.5
57908
57907.8
57907.5
57907.4
57907.5
57907.7
57907.8
57908.1
57908.3
57908.1
57908.2
57908.2
57908.3
57908.4
57908.3
57908.4
57908.5
57908.5
57908.4
57908.4
57908.2
57908.4
57908.4
57908.3
57908.4
57908.3
57908.2
57908.3
57908.2
57908.2
57908
57907.7
57907.6
57907.6
57907.5
57907.2
57907
57907
57907.1
57907.3
57907.4
57907.4
57907.9
57907.9
57908.1
57908.1
57908.2
57908.5
57908.8
57909.2
57909.3
57909.7
57910
57910.4
57910.6
57910.6
57910.7
57910.9
57911
57911.1
57911.1
57911
57911
57911.2
57911.4
57911.6
57911.7
57911.9
57912
57912.1
57912.4
57912.7
57912.8
57912.9
57912.8
57913
57913.2
57913.5
57913.6
57913.7
57913.8
57913.4
57913.3
57913.1
57913.2
57913.3
57913.3
57913.3
57913.6
57913.9
57914.3
57914.8
57915.3
57915.2
57915.4
57915.5
57915.9
57916
57916.1
57916.5
57916.6
57917.1
57917
57917.2
57917.1
57917.1
57917.2
57917.1
57917
57917
57917.2
57917.4
57917.5
57918
57918.2
57918.4
57918.9
57919.2
57919.7
57920.4
57920.9
57921.7
57922.4
57922.7
57923.4
57923.9
57924.3
57924.9
57925.2
57925.6
57926.3
57926.6
57927.3
57927.7
57928.2
57928.7
57929.1
57929.2
57929.3
57929.2
57928.9
57928.8
57928.8
57928.9
57929
57929.2
57929.5
57929.6
57929.5
57929.7
57930
57930.3
57930.2
57930.4
57930.5
57930.9
57931
57931.2
57931.6
57932
57932.1
57932.6
57932.7
57932.7
57933.3
57933.7
57933.9
57934.6
57935.4
57936
57936.2
57936.8
57937.4
57937.7
57937.9
57938.1
57938.5
57938.5
57938.8
57938.6
57938.7
57938.2
57937.9
57937.8
57937.8
57937.5
57937.6
57937.3
57937.2
57936.8
57937.1
57936.6
57936.8
57936.9
57937.3
57937.6
57937.8
58193.7
58193.8
58193.9
58194
58194.2
58194.5
58194.8
58195.1
58195.5
58195.9
58196.3
58196.7
58197
58197.2
58197.4
58197.4
58197.3
58197.1
58196.6
58196
58195.1
58194.1
58192.8
58191.4
58189.8
58187.9
58185.7
58183.3
58180.6
58177.5
58174.2
58170.5
58166.4
58161.9
58157
58151.7
58146
58139.7
58132.9
58125.6
58117.7
58109.4
58100.5
58091.2
58081.3
58071
58060.3
58049.3
58037.8
58025.9
58013.5
58000.5
57987.2
57973.8
57960.4
57946.6
57932.4
57918
57903.3
57888.6
57873.7
57858.3
57843.1
57828.1
57813
57798
57783.8
57770
57755.8
57742.2
57729.8
57717.4
57704.8
57693.4
57684
57672.8
57662.8
57656.4
57648.9
57642.9
57635.9
57634.6
57630.4
57629.5
57629
57627.7
57628
57631.5
57632.7
57637.3
57642.7
57648.3
57654.8
57662
57672.1
57679.5
57688.7
57699.2
57709.3
57719.4
57730.5
57742.8
57754.1
57764.6
57776.2
57787.4
57799.2
57809.9
57822.2
57832.6
57843
57853.5
57864.9
57874.8
57884.8
57893.9
57903.6
57912.7
57921.6
57930.5
57939.7
57947.5
57955.4
57963.7
57971.8
57978.5
57985.7
57992.6
57999.9
58006.9
58013.4
58019.5
58025.8
58032.6
58038.8
58044.3
58048.9
58053.5
58060.6
58066.9
58072.8
58076.7
58080.4
58084
58087
58089.4
58092.3
58096.5
58100.4
58102.9
58103.9
58104.6
58105.4
58105.6
58106.3
58107.5
58108.4
58109.6
58111.1
58112.2
58113.9
58116.7
58119.7
58123.6
58125.6
58128.5
58131.4
58134.2
58136.2
58133.7
58130.3
58124.7
58117.4
58110
58102.3
58094.9
58087.7
58080.6
58073.7
58067.6
58061.3
58055.9
58049.8
58044.4
58039.3
58034.4
58029.7
58025.5
58021.3
58017.5
58013
58010.3
58007
58003.6
58000.9
57997.5
57994.4
57991.6
57988.8
57985.8
57983.3
57980.6
57978.4
57976
57973.4
57971.1
57968.9
57967.3
57965.1
57963.2
57961.2
57959.3
57957.8
57956.1
57954.8
57953.7
57952.4
57951.3
57950.2
57949.1
57948.6
57947.7
57946.9
57945.4
57944.5
57943.5
57942.5
57941.1
57939.8
57938.7
57937.7
57936.7
57936.1
57934.8
57933.8
57932.6
57932
57931.5
57930.5
57929.5
57928.8
57928.4
57928
57927.4
57926.7
57926.2
57925.8
57925
57923.9
57923
57922.6
57922.3
57921.3
57920.2
57919.5
57918.8
57918
57917.4
57916.5
57915.8
57915.5
57915.1
57914.3
57913.7
57913.1
57912.8
57912.5
57912.4
57912.1
57912.1
57912.2
57912.2
57911.4
57911.1
57910.7
57910.5
57909.7
57909.4
57908.6
57907.7
57907
57906.4
57905.9
57905.6
57905.3
57904.9
57904.3
57904.2
57903.7
57903.7
57903.1
57903.2
57903
57902.8
57903.2
57903.2
57902.9
57902.8
57902.2
57901.7
57901.3
57900.5
57900.3
57900
57899.9
57899.4
57899
57899
57898.2
57897.7
57897.7
57897.6
57897.9
57897.3
57897.4
57896.7
57896.5
57896.1
57896.2
57896.1
57896.2
57896.2
57896.1
57896
57896.2
57896.2
57896.3
57896.4
57896.5
57896.4
57896.4
57896.2
57896.6
57896.8
57896.6
57896.7
57897
57896.3
57896
57896.1
57896.2
57896.3
57896.1
57896
57896.2
57895.6
57895.4
57895.5
57895.2
57895.6
57895.1
57894.7
57894.7
57894.9
57895.1
57895
57896.1
57896.6
57896.1
57896.1
57896
57895.9
57896.4
57896.6
57897.6
57897.6
57898.1
57897.7
57898.3
57898.7
57898.2
57898.1
57898
57898.2
57898.8
57898.6
57898.7
57898.9
57898.9
57899
57899.1
57899.4
57900.4
57900.3
57900.7
57900.9
57900.8
57900.6
57901
57900.9
57901.1
57901.1
57901.5
57902.1
57902
57902.6
57902
57901.4
57901.4
57901.2
57901.4
57901.8
57902.1
57902.2
57902.4
57902.3
57902.5
57903.4
57903.6
57903.7
57903.9
57903.8
57904.3
57904.8
57905
57905
57905.4
57905.8
57905.6
57905.5
57905.5
57905.3
57905.2
57905.4
57905.4
57905.6
57905.7
57906.3
57906.9
57906.8
57907
57907
57907.6
57908.1
57908.8
57909.6
57910
57910.3
57911.4
57911.8
57912.3
57912.7
57913
57913.7
57914.5
57914.8
57915.7
57916
57916.1
57917
57917.1
57917.4
57917.4
57917.8
57917.8
57917.7
57917.6
57917.1
57917
57917.2
57917.2
57917.5
57917.7
57918.1
57918.4
57918.1
57918.7
57918.9
57919.1
57918.8
57918.6
57918.8
57919.5
57919.8
57919.9
57920.5
57921.4
57920.9
57921.4
57921.3
57921.7
57922.2
57922.9
57923.5
57924.6
57924.6
57924.8
57925.2
57926.3
57926.4
57926.5
57926.4
57926.4
57926.9
57926.6
57926.6
57926.2
57926
57925.4
57925.3
57925.2
57925.1
57925.2
57924.9
57925.2
57924.5
57924.8
57925.4
57925.7
57926
57926.3
57927.2
58172.8
58172.8
58172.9
58173
58173.2
58173.5
58173.7
58174.1
58174.5
58174.8
58175.2
58175.5
58175.8
58176
58176.1
58176.1
58176
58175.7
58175.2
58174.6
58173.7
58172.6
58171.3
58169.8
58168.1
58166.2
58164
58161.6
58158.7
58155.6
58152.2
58148.5
58144.4
58139.9
58135.1
58129.8
58123.9
58117.6
58110.8
58103.4
58095.6
58087.2
58078.3
58069
58059.2
58049
58038.4
58027.4
58016
58004.2
57991.8
57978.8
57965.3
57951.8
57938.3
57924.9
57910.8
57896.3
57881.6
57867.1
57852.3
57836.8
57821.2
57806.1
57791.1
57776.2
57761.7
57748.1
57734
57720
57707.2
57694.8
57682.4
57670.7
57661.7
57650.1
57639.8
57633.6
57628
57620.5
57614.1
57612
57609.3
57607.3
57607.6
57607.1
57608.5
57611.4
57614.8
57617.8
57623.6
57628.6
57634.8
57643.4
57652.1
57659.1
57667.6
57679.2
57689.6
57698.6
57710.7
57724.2
57735.1
57745
57757.3
57769.5
57780.6
57791
57804.4
57814.5
57824.3
57835.9
57847.5
57857.6
57867.7
57876.7
57887
57896.4
57905.9
57914.8
57923.7
57931.4
57939.6
57948.4
57955.7
57963
57970.3
57977.9
57985.2
57992.1
57998.3
58004.3
58010.5
58017
58022.6
58028.9
58035.5
58042
58048.1
58052.8
58057.3
58060.9
58064.6
58068.3
58071.7
58074.4
58078
58082
58085.4
58087.3
58088.3
58088.8
58089.2
58089.4
58089.1
58089.5
58089.8
58090.2
58090.1
58090
58091.4
58094.3
58097.3
58100
58101.7
58103.3
58105.1
58106
58106.6
58104.1
58101.3
58096.3
58090.4
58084.5
58078.2
58071.9
58066.1
58060.4
58054
58047.9
58042.4
58037.8
58031.6
58026.6
58021.4
58017.3
58013.3
58008.6
58005
58001.2
57997.3
57994.5
57991.2
57988.6
57985.3
57982.4
57979.2
57976.2
57973.9
57970.8
57968.1
57965.2
57963.1
57961.2
57958
57955.7
57953.6
57952.2
57950.1
57948.8
57946.8
57944.8
57943.4
57941.4
57939.9
57939.5
57937.7
57936.5
57935.5
57934.5
57933.2
57932.3
57932.3
57931
57929.7
57928.4
57927.9
57925.8
57924.6
57923.1
57922.6
57921.9
57921.6
57920.4
57919.6
57918.1
57917.7
57917.4
57915.8
57915.4
57914.6
57914.1
57913.9
57912.8
57911.5
57910.9
57911.2
57909.2
57908.4
57907.9
57907.4
57907.9
57906
57905.3
57904.5
57903.3
57903
57902.8
57902.8
57901.8
57901
57900.3
57900
57899.3
57898.7
57898.2
57898
57898.1
57897.8
57896.7
57897.4
57898.1
57896.8
57896.3
57895.9
57895.9
57895
57895
57894.4
57893
57892.4
57892
57891.2
57891.6
57890.8
57891.2
57890.5
57890.2
57889.5
57889
57888.6
57888.3
57887.8
57887.9
57887.9
57888.1
57888.3
57888.6
57887.6
57886.8
57886.1
57886.3
57885.3
57885.1
57885.5
57884.3
57884.2
57884.3
57883.4
57882.8
57882.9
57882.4
57882.6
57881.9
57882.3
57881.5
57881.4
57881.5
57881.6
57881.7
57881.7
57881.7
57882
57881.3
57881
57880.9
57880.8
57880.7
57881
57881
57880.9
57881.5
57882.2
57882.4
57881.5
57881.2
57881.8
57881
57880.9
57881.2
57880.6
57881
57881.6
57881.3
57881.8
57881.1
57880.9
57880.6
57880.7
57881
57879.9
57879.1
57878.9
57879.8
57880.6
57881.1
57881.4
57881.5
57880.9
57881.3
57880.7
57880.7
57880.9
57881.1
57882.4
57881.9
57882.1
57883.1
57882.5
57883.1
57882.5
57881.7
57882.3
57882.7
57883.2
57882.9
57882.8
57882.9
57883.7
57883.7
57884.4
57884.6
57885.6
57885.4
57885.7
57886.3
57885.6
57885.3
57885.3
57885.3
57885.6
57885.9
57886.7
57887.3
57887.1
57887.5
57886.8
57886.4
57886
57885.8
57886.2
57887.4
57887.1
57887.7
57887.3
57888
57888.5
57889.2
57888.6
57888.7
57888.8
57889.2
57889.9
57890.7
57890.3
57889.8
57890.6
57891.2
57891.1
57890.7
57890.9
57891.2
57890.6
57890.4
57890.5
57891.2
57891.7
57892.2
57893.2
57892.6
57892.4
57893.2
57893.1
57893
57894.1
57895.7
57895.9
57896.2
57896.4
57897.5
57897.3
57897.6
57898.4
57899.1
57899.4
57899.8
57900.4
57901.5
57902.2
57902.4
57902.9
57902.6
57903.4
57904.1
57904.1
57903.1
57902.2
57902
57902.2
57902.4
57902.9
57903.6
57903.1
57903
57903.8
57904
57904.3
57903.7
57904
57903.9
57904.3
57904.4
57904.7
57905.4
57905.8
57905.8
57907
57906
57906.1
57907.1
57907.3
57907.2
57907.9
57909.2
57909.8
57909.4
57909.6
57910
57911.6
57911.6
57910.9
57910.9
57910.8
57911.6
57911
57911.7
57911.6
57911.5
57910.9
57909.8
57910.5
57910.8
57911
57910.7
57909.9
57909.5
57910.2
57910.2
57911.5
57911.6
57912.5
57913.2
58146
58146.1
58146.2
58146.2
58146.4
58146.6
58146.9
58147.3
58147.6
58147.9
58148.2
58148.5
58148.8
58148.9
58149
58149.1
58148.9
58148.5
58148
58147.4
58146.5
58145.4
58144.1
58142.6
58140.9
58139
58136.9
58134.4
58131.5
58128.4
58125
58121.2
58117.1
58112.7
58107.9
58102.5
58096.6
58090.2
58083.4
58076.2
58068.3
58059.9
58050.9
58041.6
58032.1
58022.1
58011.5
58000.4
57988.9
57977.2
57965
57952.1
57938.6
57924.7
57911.3
57897.9
57884.1
57869.7
57855
57840.5
57825
57809.6
57793.7
57778.9
57764
57748.9
57734.1
57721.3
57706.8
57692.7
57679.7
57668
57655.1
57642.1
57634.1
57623.3
57612.6
57605.6
57600.4
57592.6
57587.3
57584.1
57581.4
57578.5
57579.2
57579.3
57581
57582.4
57586
57589.7
57595.8
57601.1
57607.8
57616
57624.6
57632
57641.1
57653.2
57663.1
57672.9
57686.2
57699.6
57709.1
57720.1
57733.7
57744.5
57754.8
57766.5
57780.8
57790.1
57800.1
57813.6
57825.1
57835.1
57844.4
57855.1
57865.4
57875.1
57884.2
57893.6
57900.6
57910.3
57919.8
57927.1
57934
57942.3
57950.9
57958.1
57964.7
57970.6
57977.5
57984.4
57991.1
57995.8
58002.6
58009.9
58015.6
58021.8
58027.8
58034.1
58037.6
58042.4
58045.5
58049.1
58052.4
58055.9
58059.6
58062.7
58065
58066.6
58067.2
58067.3
58067.1
58066.1
58065.3
58065.4
58065.6
58064.9
58063.4
58061.6
58062.3
58064.6
58067.1
58069.2
58070.4
58071.2
58071.5
58071.8
58071.9
58070
58067.6
58063.7
58059
58054.1
58049.1
58044.8
58040.8
58036
58029.8
58024.9
58019.5
58015.4
58010.3
58004.7
58000.6
57997.2
57992.5
57988.4
57985.1
57982.3
57979.3
57975.5
57972.1
57970
57967.2
57964.5
57960.5
57957.2
57955.5
57951.4
57948.9
57946.7
57944.4
57941.3
57939.8
57937.2
57934.5
57932.5
57931.5
57928.9
57928.4
57926.7
57925.1
57923.4
57922.3
57922.1
57920.1
57918.9
57917.3
57916
57915.4
57914.7
57913.6
57912.4
57911.6
57910.5
57910
57908.1
57906.7
57906
57905.5
57903.6
57902.5
57901.7
57902.1
57900.5
57899.1
57899
57897.8
57898.4
57896.7
57895.8
57896
57894.8
57893.6
57893.6
57894.2
57892.8
57891
57889.8
57890
57889.6
57888.1
57887.6
57887.6
57886.5
57885.8
57884.8
57885.8
57884.3
57884
57883.5
57882.9
57881.6
57880.9
57880.9
57880.6
57881.2
57880.9
57879.8
57879.7
57878.1
57878
57878.8
57877.8
57876.9
57876.4
57876
57876.2
57875.2
57874.9
57874.4
57874.9
57875.1
57873.7
57874.2
57872.5
57873.3
57872.5
57871.3
57871
57870.8
57870.3
57870.1
57870
57870.3
57871.1
57871.2
57869.7
57868.7
57869.2
57869.8
57868.6
57867.5
57868
57867
57866
57865.2
57865
57864.7
57865.3
57864
57864.3
57863.9
57863.3
57863
57863.6
57863.3
57864.3
57863.4
57864.1
57864
57864.8
57864.1
57863.6
57863.5
57863.6
57863.7
57863.6
57862.6
57862.9
57863.1
57862.9
57863.8
57863.5
57863.1
57862.3
57862.3
57862.6
57863.7
57863.4
57863
57863.7
57863
57863.4
57862.8
57862.6
57862.4
57861.8
57861.3
57862.1
57862.9
57862.3
57862.8
57863.4
57863.5
57864
57862.8
57862.2
57863
57862.1
57862.1
57862.3
57862.4
57862.9
57862.8
57863.7
57865.8
57864.4
57863.1
57863.4
57863.2
57863.9
57863.9
57864
57864.5
57864.8
57865.1
57866.2
57866.7
57866.4
57865.5
57865.2
57865.9
57867.5
57867.1
57867.4
57867.2
57867.6
57867.2
57867.1
57867.2
57868.2
57867.5
57867.9
57867.7
57868.5
57867.8
57867.7
57868.1
57868.6
57869.5
57869.3
57870.5
57869.3
57869.6
57870.3
57870.6
57870.3
57870.6
57870.4
57870.8
57870.9
57870.8
57871.9
57871.6
57872
57872
57873.2
57872.6
57873.3
57873.9
57872.6
57872.3
57872.8
57874.3
57874.5
57875.5
57876.5
57876
57875.8
57876.9
57875.9
57875.4
57875.7
57876.5
57878.1
57878.6
57877.7
57879.5
57879.9
57879.9
57881.7
57882.3
57882
57882.3
57882.6
57884.9
57886.3
57885.8
57886.3
57886.1
57886.2
57887.1
57887.1
57886
57885.1
57885
57884.3
57885.1
57884.7
57886.1
57885.3
57885.9
57887.1
57886.5
57887.6
57887
57887
57885.9
57885.8
57885.9
57886.5
57888.3
57888.5
57887.4
57886.8
57887.6
57888
57890.4
57890.6
57890.2
57890.7
57891.7
57890.8
57890.9
57891.6
57891.9
57892.5
57892.5
57893.2
57892.9
57892.2
57892.6
57892.8
57893.9
57893.6
57892.2
57892.3
57892.4
57892.7
57893
57893
57892.5
57893.5
57893.8
57893.4
57893.3
57894.8
57893.9
57894.8
57894
58114.1
58114.2
58114.2
58114.3
58114.5
58114.7
58115
58115.4
58115.7
58116
58116.3
58116.7
58116.9
58117.1
58117.2
58117.3
58117.1
58116.8
58116.3
58115.7
58114.9
58113.9
58112.6
58111.1
58109.4
58107.6
58105.4
58103
58100.1
58096.9
58093.4
58089.6
58085.6
58081.1
58076.4
58071
58065
58058.6
58051.7
58044.4
58036.7
58028.4
58019.3
58010
58000.3
57990.6
57980.5
57969.5
57957.6
57945.6
57933.7
57921.1
57907.5
57893.6
57880
57866.7
57852.8
57838.6
57824.1
57809.8
57793.9
57778
57762.1
57747.1
57732.4
57717.3
57702.6
57688.9
57674.8
57660.5
57647
57635.2
57622
57608.8
57600
57590.3
57580.4
57571.6
57568.1
57560.7
57554.8
57549.2
57547.8
57545.6
57544.9
57546.1
57547.5
57548.8
57552.8
57557.9
57563.4
57569.3
57576.3
57585
57593.9
57601.3
57612
57623.7
57633.8
57644.5
57658.5
57671.1
57680.1
57691.4
57706.2
57715.8
57726.7
57739.6
57753
57763
57774.1
57788.6
57798.5
57808.2
57818.5
57829.2
57838.8
57848.4
57860
57867.2
57875.6
57886
57895.9
57902.6
57909.2
57917.6
57926.4
57933.5
57939.5
57946.3
57953.4
57960.6
57968.1
57973.5
57980.5
57987.8
57992.7
57999.5
58005.4
58011.2
58015.5
58019.9
58023.4
58027.1
58031
58034.4
58036.7
58039.3
58041.5
58042.7
58042.7
58041.9
58040.9
58039.6
58038.2
58037.6
58036.6
58034.6
58031.6
58028.9
58028.7
58029.8
58031.4
58032.2
58033.9
58033.1
58032.1
58033.2
58032.5
58031.4
58029.4
58026.7
58023.5
58020.2
58016.9
58013.1
58010.6
58005.8
58001.8
57997.8
57992.5
57988.4
57985.7
57980.1
57975.9
57972
57968.4
57965.8
57963.4
57960.8
57957.8
57953.4
57949.4
57947
57944.3
57939.5
57936.3
57934.9
57932.9
57928.8
57926.9
57924.5
57922.2
57919.1
57917.2
57914.9
57912.2
57909.7
57908.8
57906.1
57904.5
57903.5
57902.2
57901.8
57900.2
57900.3
57898.8
57898.5
57896.4
57895.3
57894.6
57893.5
57892.9
57892.2
57891.6
57889.9
57889
57887.8
57885.7
57884.8
57884.7
57882.8
57881
57880.5
57880.4
57878.9
57878.1
57876.4
57876.3
57874.8
57875.6
57874.2
57872.6
57872.6
57872
57871.9
57870.9
57872.1
57869.7
57868.8
57869.1
57867
57866.3
57865.8
57866.5
57865
57864.1
57863.1
57862.1
57862
57863.5
57863.4
57861.4
57860.7
57860.3
57860.4
57859.4
57859.6
57858.3
57859.5
57859
57857
57857.3
57857.9
57856.9
57854.9
57854.7
57853.7
57853.2
57853.7
57854.9
57854.3
57855.3
57854.1
57852.4
57850.9
57851.3
57851.6
57850.1
57849.8
57851
57850.9
57849.1
57848.5
57848.9
57849.7
57849.9
57849.2
57848.9
57848
57847.9
57846.8
57847.6
57845.9
57845.7
57846.4
57845.1
57844
57844.4
57843.9
57844.6
57843.1
57842.3
57842.6
57841.7
57842
57842.8
57842.8
57844.3
57842.8
57842
57842.8
57842.8
57843.2
57842.6
57842.3
57843
57843
57843.2
57841.7
57841.5
57842.3
57841.5
57841.7
57842.3
57842.2
57841.6
57841.2
57841
57842.2
57841.6
57841
57840.7
57840.9
57840.5
57841
57841.5
57841.5
57840.2
57840.5
57841.1
57843.5
57842.2
57841.5
57842.7
57841.8
57842.3
57840.4
57840.8
57840.2
57841.4
57841.2
57841.1
57840.4
57840.5
57842.3
57842.9
57843.2
57843
57841.3
57842
57842.1
57841.6
57841.8
57842.3
57842
57843.3
57844.1
57845.6
57845.8
57844.8
57843.9
57843.6
57844.5
57846.1
57845.1
57846.2
57845.3
57846.3
57845.9
57846.9
57846.3
57846.1
57845.9
57846.1
57846.9
57848.1
57847.1
57846.5
57846.8
57846.9
57847.1
57848.6
57849.6
57848.6
57848.8
57850.7
57850.3
57849.9
57849.7
57850.6
57849.8
57850.4
57849.7
57849.8
57849.5
57849.5
57850.2
57851.4
57850.8
57850.9
57851.6
57851.7
57851.8
57852
57852.6
57854.2
57854.7
57853.8
57855.6
57854.6
57854.1
57855.4
57855
57855.1
57855
57856.8
57858.7
57857.1
57856.9
57859
57858.8
57859.6
57860.9
57861.7
57862.3
57862.9
57863.9
57864.1
57865
57864.9
57865.6
57865.3
57864.8
57863
57865.1
57864.4
57863.7
57863.9
57864.1
57863.8
57863.3
57864.4
57865.3
57867.1
57866.4
57866.9
57866.4
57866.9
57865.8
57864.8
57865.6
57866.4
57867.2
57866.3
57866.2
57865.6
57866.7
57867.7
57866.9
57867.9
57868.8
57869.4
57868
57868.4
57869.7
57870.4
57870.1
57869.5
57870.2
57872.1
57872.2
57871.2
57870.8
57871.1
57871.7
57871.3
57872
57871.7
57872.5
57871.2
57872.7
57871.6
57871.8
57873.6
57873
57872
57873.1
57873.7
57872.9
57873.3
57872.2
58077.9
58078
58078
58078.2
58078.3
58078.7
58079
58079.4
58079.7
58080
58080.3
58080.7
58081
58081.1
58081.3
58081.4
58081.3
58081
58080.6
58080.1
58079.4
58078.5
58077.2
58075.9
58074.2
58072.4
58070.2
58067.8
58064.9
58061.6
58058.3
58054.3
58050.2
58045.8
58041
58035.5
58029.5
58022.9
58016
58008.9
58001.1
57993.1
57984.1
57974.6
57964.6
57955.1
57945.2
57934.8
57923.2
57910.7
57898.3
57886.2
57873
57859.1
57845.5
57831.9
57818
57803.8
57789.6
57775
57759.1
57742
57726.3
57711.3
57697.2
57681.4
57667.1
57652.9
57639.4
57624
57610.4
57597.9
57584.7
57571.5
57560.4
57552.7
57542.1
57534.8
57529.7
57522.8
57516.7
57510.8
57510.1
57507.6
57506.6
57508.5
57509.5
57511.9
57515.5
57520.1
57526.5
57532.6
57540.1
57548.9
57558.1
57566.1
57577.2
57588.4
57599.3
57610
57623.7
57634.6
57643.9
57656.5
57671.7
57681.3
57693.1
57707.6
57720
57731.2
57742.9
57756.3
57765.8
57776.6
57788.8
57798.2
57807.3
57818.6
57830.2
57836.1
57845.1
57856.7
57866.3
57872.6
57880.1
57889.5
57897.9
57906.5
57912.4
57920.2
57926.4
57934.4
57942.4
57948
57954.7
57961.8
57966
57972.8
57979
57984.2
57989.7
57993.9
57997.6
58001.1
58004.5
58007.4
58010
58011.5
58012.7
58013
58012.1
58010.8
58009.5
58007.5
58005.5