/*--------------------------------*- C++ -*----------------------------------*\
| =========                 |                                                 |
| \\      /  F ield         | OpenFOAM: The Open Source CFD Toolbox           |
|  \\    /   O peration     | Version:  v2012                                 |
|   \\  /    A nd           | Website:  www.openfoam.com                      |
|    \\/     M anipulation  |                                                 |
\*---------------------------------------------------------------------------*/
FoamFile
{
    version     2.0;
    format      ascii;
    class       surfaceScalarField;
    location    "500";
    object      phi;
}
// * * * * * * * * * * * * * * * * * * * * * * * * * * * * * * * * * * * * * //

dimensions      [1 0 -1 0 0 0 0];
oriented        oriented;


internalField   nonuniform List<scalar> 
130432
(
24.1133
-23.6333
46.6154
-22.1349
66.7339
-19.7534
87.9213
-20.8279
111.742
-23.4668
138.754
-26.6627
165.589
-26.4915
187.072
-21.1433
208.289
-20.8815
232.326
-23.7044
257.661
-25.0038
284.647
-26.6538
312.133
-27.1543
339.429
-26.9622
368.562
-28.7974
399.059
-30.1614
429.046
-29.6495
458.645
-29.2623
488.446
-29.4655
519.507
-30.7268
552.305
-32.4663
586.576
-33.9425
621.455
-34.5546
655.847
-34.0731
689.983
-33.8261
724.315
-34.0317
758.886
-34.2811
796.46
-37.2953
838.392
-41.6602
882.367
-43.7095
927.081
-44.4493
972.89
-45.5427
1019.13
-45.9674
1065.28
-45.871
1110.15
-44.5887
1152.25
-41.8067
1192.34
-39.7884
1233.1
-40.45
1276.54
-43.1294
1320.46
-43.5928
1365.2
-44.4054
1412.43
-46.8967
1459.58
-46.796
1506.31
-46.3743
1554.74
-48.0784
1603.23
-48.1252
1649.88
-46.2979
1694.16
-43.9232
1735.04
-40.5429
1775.14
-39.7621
1818.4
-42.9446
1866.38
-47.6621
1916.81
-50.1345
1963.87
-46.759
2006.49
-42.3315
2049.48
-42.6998
2092.75
-42.9863
2133.12
-40.0955
2170.15
-36.7419
2204.85
-34.4054
2241.23
-36.0704
2282.25
-40.6762
2324.94
-42.3467
2363.29
-38.0092
2393.92
-30.2559
2426.05
-31.7501
2469.63
-43.2107
2505.13
-35.1467
2514.2
-8.70703
2531.61
-17.0357
2578.4
-46.4757
2595.43
-16.7607
2571.96
23.8117
2601.89
-29.5748
2677.71
-75.5385
2682.4
-4.40964
2640.36
42.4742
2654.58
-13.8068
2694.09
-39.1409
2709.19
-14.7051
2701.86
7.79726
2665.26
37.1008
2670.63
-4.86229
2739.32
-68.236
2707.62
32.0791
2600.35
107.835
2646.13
-45.1974
2732.04
-85.4879
2636.35
96.1392
2558.83
78.1641
2635.12
-75.7626
2629.12
6.43238
2530.4
99.2887
2530.83
0.177138
2552.65
-21.2736
2492.73
60.4819
2436.08
57.2678
2421.48
15.2214
2423.03
-0.954362
2409.12
14.5555
2333.35
76.4113
2271.37
62.6854
2316.02
-44.0327
2326.35
-9.72736
2193.16
133.8
2111.33
82.4987
2184.39
-72.479
2195.95
-11.0076
2068.25
128.335
2012.53
56.3806
2066.25
-53.1057
2042.35
24.5269
1944.88
98.1358
1929.43
16.0759
1957.34
-27.3145
1904.83
53.1062
1831.81
73.6476
1844.26
-11.8755
1877.61
-32.7786
1834.56
43.6559
1769.02
66.145
1770.63
-1.04441
1798.41
-27.2112
1770.73
28.2562
1711.36
59.9309
1694.27
17.6276
1717.27
-22.4532
1722.12
-4.27913
1696.15
26.5664
1683.69
13.0383
1700.65
-16.3915
1708.74
-7.51268
1679.87
29.4618
1642.2
38.277
1644.68
-1.8988
1697.83
-52.5735
1773.15
-74.7941
1826.73
-53.0585
1821.26
6.00168
1756.49
65.3207
1679.22
77.7462
1649.23
30.438
1692.18
-42.5268
1791.87
-99.2994
1910.05
-117.852
2007.13
-96.7781
2059.63
-52.1994
2063.23
-3.30453
2026.89
36.6134
1974.95
52.1755
1946.18
28.9528
1967.49
-21.1971
2032.62
-65.0937
2111.39
-78.8161
2177.89
-66.6105
2224.36
-46.6725
2245.03
-20.9857
2233.44
11.0418
2204.28
28.3599
2185.54
17.5106
2182.77
1.2665
2174
6.7503
2144.75
26.9301
2104.82
37.1369
2062.63
39.1034
2001.14
58.1771
1900.86
96.7738
1765.73
131.58
1614.95
147.323
1468.14
143.61
1336.62
128.626
1222.14
111.97
1121.73
98.3114
1033.86
86.1956
956.422
76.1835
889.243
66.2986
833.167
55.4748
783.842
48.9073
738.486
45.0542
696.737
41.5294
657.96
38.6057
623.491
34.3375
592.283
31.092
562.522
29.6577
534.299
28.1383
508.819
25.4103
485.959
22.8126
465.596
20.3315
447.432
18.1518
430.464
16.9831
414.36
16.1137
399.385
14.9716
385.425
13.9445
372.289
13.1134
358.834
13.4299
344.492
14.309
330.163
14.2901
316.506
13.6352
304.538
11.9515
292.914
11.6244
282.782
10.1413
274.021
8.77953
264.714
9.33943
254.501
10.2592
243.808
10.7301
233.897
9.94966
224.897
9.03565
218.34
6.58658
211.967
6.39376
204.646
7.34522
197.848
6.80585
192.943
4.90774
188.05
4.88778
183.154
4.88512
179.56
3.57427
175.22
4.29871
170.418
4.74993
164.949
5.41045
159.629
5.24867
155.207
4.34869
150.164
4.96691
143.41
6.68536
137.93
5.41555
135.185
2.67799
133.73
1.396
132.114
1.56621
129.694
2.36457
127.795
1.84616
126.344
1.39101
125.031
1.25806
122.012
2.95375
117.718
4.22717
115.721
1.9392
115.215
0.441935
113.011
2.14753
108.886
4.06714
104.028
4.80752
98.5338
5.46573
94.5429
3.96027
92.2123
2.29029
90.1928
1.98696
89.895
0.258301
89.8964
-0.0435163
88.5615
1.27805
86.1705
2.34869
82.8159
3.31214
79.7909
2.98373
77.5817
2.18261
75.4459
2.10153
73.7906
1.61122
71.8129
1.93793
69.1081
2.68782
66.0302
3.06072
62.491
3.53727
60.135
2.37561
59.798
0.381525
58.8992
0.964816
57.181
1.7937
55.1892
2.06248
52.3662
2.89968
51.0308
1.42215
49.9335
1.18595
47.4521
2.56304
44.6476
2.89229
41.714
3.03718
38.5248
3.30307
35.8866
2.7662
34.0443
1.96311
35.0324
-0.870655
38.2879
-3.142
40.4683
-2.08652
42.7907
-2.25571
43.9497
-1.12677
42.9333
1.0311
41.0374
1.89688
39.8133
1.20586
39.0087
0.762486
38.1646
0.80468
37.2809
0.842596
36.2364
1.00357
35.2524
0.959077
33.6464
1.59284
30.8132
2.83901
27.6503
3.16253
25.9149
1.74766
25.3045
0.618122
25.3208
0.00933927
24.9367
0.41969
24.2287
0.751551
22.5784
1.71159
20.6905
1.95162
20.4332
0.323097
21.9685
-1.47701
23.4918
-1.48757
24.293
-0.770519
23.8711
0.43042
22.1671
1.69579
20.326
1.82078
18.9941
1.31408
18.1983
0.775565
17.554
0.637525
17.4446
0.0878196
17.4213
0.0102309
17.1508
0.248778
18.4013
-1.27591
21.3584
-2.99212
22.339
-1.0235
21.3675
0.924419
19.3225
1.99214
16.5565
2.70966
14.9197
1.57389
16.0913
-1.22637
16.2242
-0.19237
14.922
1.24623
14.1649
0.694938
13.0771
1.04276
11.6458
1.38831
10.3523
1.25222
11.4215
-1.11165
12.1988
-0.833522
11.6313
0.509245
11.2174
0.34908
10.5054
0.634869
11.041
-0.608829
12.3179
-1.34768
12.5749
-0.32808
13.0451
-0.53677
14.433
-1.46802
17.1945
-2.8467
21.7258
-4.63007
26.1326
-4.50879
27.0699
-1.0597
26.483
0.459367
25.2548
1.10974
22.6947
2.43801
20.1964
2.38449
17.4708
2.61069
15.3943
1.96562
13.4548
1.83457
12.5196
0.841225
12.5715
-0.14019
13.0614
-0.576373
14.7327
-1.77882
15.1059
-0.48891
15.4316
-0.448334
15.4877
-0.193169
13.7371
1.61887
11.6889
1.9193
11.426
0.136771
13.4636
-2.14205
14.4602
-1.07419
13.7691
0.639275
12.0631
1.66566
10.2234
1.80346
9.74479
0.441425
9.45398
0.242776
9.9992
-0.586047
11.8493
-1.88959
12.8763
-1.07897
13.5675
-0.736732
13.986
-0.460891
12.9426
1.00886
11.5695
1.33853
10.3992
1.13397
9.8152
0.550198
8.61218
1.16024
7.6635
0.913475
7.69219
-0.0886632
8.16133
-0.512558
9.39753
-1.286
9.5291
-0.176346
10.2195
-0.723006
10.6664
-0.483887
10.5626
0.0710235
11.2666
-0.740959
12.0245
-0.794769
12.5756
-0.586748
12.9447
-0.407427
14.882
-1.98497
14.8178
0.00587075
11.4567
3.29189
8.42421
2.95666
6.26949
2.06781
3.80086
2.38869
2.18401
1.54345
1.26862
0.845153
0.454203
0.742464
-1.00303
1.38687
-1.9407
0.883058
-0.88095
-1.09508
0.864032
-1.77251
3.83759
-2.99536
5.34355
-1.52927
5.75919
-0.437985
5.65775
0.0722356
4.4131
1.20356
3.00004
1.39029
1.2299
1.74911
0.0779583
1.14038
0.0872748
-0.0236853
0.712363
-0.638089
1.1356
-0.427261
2.80341
-1.67558
4.81064
-2.02569
4.59706
0.200372
2.15507
2.41796
-0.11363
2.23991
-0.543746
0.399993
1.1602
-1.72601
4.54698
-3.39647
6.27304
-1.72216
6.39296
-0.127015
6.51574
-0.136448
5.97384
0.53171
4.25382
1.69961
2.45837
1.78154
3.57303
-1.15019
6.44842
-2.9113
7.7728
-1.36728
6.77156
0.965669
4.83094
1.91142
3.29889
1.48984
2.7269
0.548034
1.89513
0.811142
0.751772
1.13092
-0.294126
1.02966
-2.57363
2.26186
-4.64839
2.06281
-5.7058
1.03811
-6.43156
0.696426
-7.05749
0.597258
-7.64797
0.564778
-7.37185
-0.286253
-8.12384
0.765953
-7.40836
-0.701409
-4.28723
-3.08682
-2.87389
-1.3759
-0.995622
-1.83945
0.853422
-1.80392
2.20819
-1.30197
2.21211
0.0431457
1.65305
0.600891
1.7378
-0.0588413
1.50297
0.259798
2.27041
-0.746805
4.06353
-1.79627
6.76989
-2.7148
9.32555
-2.58842
10.7694
-1.49081
11.7671
-1.04976
12.6331
-0.937111
13.3317
-0.770804
14.0561
-0.806667
13.9549
0.0168373
13.735
0.15338
12.351
1.33485
9.3304
2.98428
5.15193
4.16572
1.81657
3.3218
0.632519
1.18616
-0.0499465
0.671534
-1.33712
1.26973
-3.08609
1.73906
-4.03341
0.942369
-4.92302
0.889712
-4.84802
-0.0749163
-3.85764
-0.971519
-3.21445
-0.6053
-2.32549
-0.827103
-0.187874
-2.06533
2.73052
-2.83651
3.06638
-0.249211
2.13789
1.02672
0.332848
1.88632
-2.08126
2.49503
-4.20387
2.19921
-5.70167
1.56471
-7.08361
1.4466
-7.60317
0.592222
-5.66106
-1.89068
-5.49245
-0.125584
-4.60139
-0.851264
-1.58962
-2.98911
-0.31964
-1.26966
1.17243
-1.50434
1.25371
-0.0884231
-0.0410158
1.28008
-0.993139
0.930918
-1.5442
0.54366
-2.4327
0.8726
-1.41564
-1.03323
1.57734
-3.0182
0.353447
1.19862
-3.24406
3.57507
-5.87063
2.61368
-7.02172
1.12762
-5.95121
-1.07226
-3.77
-2.16582
-2.31582
-1.45284
-1.17253
-1.15206
-0.852907
-0.325863
-1.25118
0.381928
-2.99358
1.71823
-6.19085
3.16487
-8.67048
2.45803
-11.4009
2.69135
-11.6986
0.26715
-8.4844
-3.24529
-6.8687
-1.67508
-6.20609
-0.730362
-5.30292
-0.987109
-5.40314
22.2193
-45.4808
45.4523
-44.9983
68.1256
-42.0595
89.9535
-42.2933
111.673
-44.8293
134.202
-48.8392
158.035
-49.9765
179.845
-42.6096
202.804
-43.5022
228.109
-48.674
252.699
-49.2604
277.344
-50.966
302.942
-52.4188
329.282
-52.9685
357.034
-56.2144
385.343
-58.1345
413.313
-57.2821
442.156
-57.7693
471.651
-58.626
502.14
-60.883
534.858
-64.8545
569.427
-68.1831
604.58
-69.383
639.723
-68.8957
675.569
-69.361
712.802
-70.9637
750.065
-71.2549
787.269
-74.2234
825.747
-79.8695
865.902
-83.6001
906.913
-85.1956
949.36
-87.7232
993.646
-89.9795
1038.21
-90.153
1081.83
-87.9168
1124.71
-84.3805
1168.67
-83.4535
1213.68
-85.1533
1258.78
-87.9183
1303.36
-87.848
1347.48
-88.1938
1391.73
-90.8174
1437.31
-92.0289
1485.43
-94.1474
1535.05
-97.3428
1583.36
-96.0677
1629.03
-91.6123
1672.46
-86.9826
1715.04
-82.7761
1759.62
-84.0142
1806.5
-89.5262
1852.19
-93.0397
1894.37
-92.01
1936.89
-88.9505
1984.39
-89.5267
2032.4
-90.4233
2072.93
-83.231
2108.62
-75.4741
2146.9
-74.7119
2188.56
-75.7903
2230.88
-78.1285
2269.67
-79.0782
2301.87
-74.1912
2333.82
-69.6175
2373.9
-69.9771
2416.23
-73.6947
2446.53
-73.1498
2465.67
-53.9631
2491.1
-33.6937
2528.1
-53.6509
2554.35
-72.4667
2559.94
-22.0614
2584.01
0.143877
2638.79
-84.1558
2648.67
-85.1891
2603.15
41.8349
2618.66
27.4361
2692.42
-87.3868
2688.48
-34.91
2639.35
34.8236
2662.91
-15.0907
2703.28
-2.96015
2697.8
1.00744
2681.81
-51.8093
2650.71
63.8166
2629.46
129.498
2664.19
-79.4782
2664.8
-85.6311
2596.73
164.836
2591.68
83.6973
2626.19
-109.746
2573.02
60.0789
2519.9
152.928
2542.43
-21.8185
2526.66
-4.97873
2463.54
124.157
2438.92
82.384
2423.19
31.5019
2382.66
40.2397
2347.58
50.2366
2329.62
95.0327
2327.23
65.6907
2307.22
-23.3541
2233.5
64.6101
2176.17
191.695
2191.2
67.9941
2181.75
-62.4401
2103.49
67.8946
2065.54
166.999
2081.29
41.192
2040.14
-11.36
1967.27
98.0531
1962.6
103.52
1970.29
8.99736
1906.68
36.9087
1845.84
114.596
1856.14
63.9444
1862.75
-17.9105
1813.09
17.4911
1775.54
81.8049
1790
52.2565
1791.22
-1.71904
1744.3
20.2481
1708.71
64.4166
1720.14
49.0679
1727.41
10.9193
1691.09
14.4293
1651.7
35.6859
1660.5
18.3934
1699.61
-25.477
1710.35
-26.5619
1673.51
29.9042
1628.38
75.1681
1622.21
44.9885
1666.3
-45.4405
1735.85
-121.605
1791.63
-130.019
1800.01
-60.9032
1759.14
47.4291
1706.41
118.502
1686.05
98.5863
1714.25
2.60755
1775.57
-103.461
1844.58
-167.975
1901.82
-174.735
1937.67
-132.303
1952.05
-66.2496
1948.02
1.09208
1934.05
50.9438
1929.95
56.5219
1954.12
4.9079
2003.43
-70.4488
2055.38
-117.045
2090.79
-114.265
2111.17
-87.1392
2127.75
-63.4807
2140.22
-33.7572
2143.7
7.30596
2141.58
29.8698
2138.12
19.7707
2128.58
9.32816
2104.41
28.8421
2065.77
63.2679
2017.75
82.2346
1959.14
94.3442
1879.97
133.941
1774.71
198.4
1649.76
252.781
1517.51
276.025
1390.66
267.259
1275.78
240.749
1174.17
211.161
1084.15
186.388
1004.48
164.314
934.014
145.475
872.217
127.242
818.553
108.555
771.151
95.9057
727.385
88.531
686.394
82.2956
649.994
74.8212
616.805
67.3431
584.943
62.8189
556.176
58.3323
530.41
53.8154
506.072
49.7026
482.253
46.5827
461.487
41.0802
443.834
35.8166
426.974
33.8422
411.32
31.8403
395.55
30.7836
380.057
29.446
366.547
26.6288
353.83
26.1084
342.036
26.0876
330.43
25.8881
317.135
26.9402
304.577
24.5367
293.126
23.0721
281.835
21.5034
271.141
19.516
261.715
18.7856
252.606
19.3656
243.892
19.4828
236.155
17.7317
227.431
17.7956
218.339
15.699
210.122
14.646
204.021
13.4308
198.896
11.9252
193.786
10.0181
187.643
11.0378
181.185
11.3237
177.01
7.70203
173.042
8.22309
169.019
8.73113
166.155
8.22119
162.757
8.59896
157.687
9.37884
150.892
11.7008
143.562
13.9415
138.372
10.5269
135.486
5.56017
134.248
2.58968
131.988
3.77145
127.317
6.94729
123.947
5.13328
123.715
1.57882
124.415
0.466383
121.854
5.48284
117.359
8.68087
114.642
4.59289
111.811
3.22713
108.894
5.04606
106.931
5.98264
104.054
7.64698
99.0914
10.3327
94.9831
8.03266
91.9661
5.32645
87.9304
6.01136
86.3157
1.86809
86.4583
-0.239591
85.1874
2.52606
81.4772
6.01513
76.4708
8.27009
74.5968
4.7399
75.8507
0.794784
76.2665
1.62292
73.8985
3.9374
69.9083
5.8622
67.704
4.77242
67.1913
3.5226
64.99
5.69889
61.2833
6.12959
59.3191
2.37344
58.7204
1.60379
58.0202
2.5457
56.827
3.35171
53.7488
6.072
50.9685
4.25231
50.0233
2.1882
49.371
3.28899
46.6309
5.73543
42.4761
7.29846
39.686
6.21095
37.3577
5.20229
34.3659
5.11213
34.38
-0.773432
37.9154
-6.60908
40.5541
-4.68256
41.0743
-2.76301
40.1962
-0.218183
39.683
1.56861
38.2106
3.33471
37.2161
2.16803
37.4139
0.564526
36.1521
2.01476
33.7944
3.13471
32.6978
2.04312
33.5854
0.0337089
33.048
2.10384
30.2607
5.58882
28.5262
4.91149
27.8547
2.40271
26.1286
2.33645
24.4775
1.71624
24.6786
0.281267
26.5242
-1.02717
25.8323
2.45638
24.0114
3.82657
24.9639
-0.555658
26.5284
-2.99442
26.2981
-1.20275
26.735
-1.197
27.1104
0.0536143
25.1659
3.66855
23.2759
3.73221
21.525
3.0597
19.6229
2.68259
19.2724
0.896833
19.6651
-0.32986
19.4351
0.185254
19.4028
0.226074
20.3792
-2.32897
22.0273
-4.69074
22.2138
-1.24369
21.5158
1.57729
19.3363
4.13194
16.1011
5.89399
14.0159
3.62353
14.274
-1.53561
13.0488
0.981479
11.711
2.54153
12.333
0.0400058
10.9404
2.37417
8.32973
3.93215
7.26598
2.27078
10.5602
-4.45624
13.9877
-4.29641
14.3196
0.0934245
12.9749
1.6389
10.9433
2.6744
11.9977
-1.72206
13.6122
-3.01424
12.6288
0.586831
11.7115
0.277039
11.93
-1.78284
13.9015
-4.94131
17.8599
-8.68031
22.846
-9.60953
25.503
-3.79665
25.4756
0.401131
23.3042
3.12324
20.3449
5.23947
17.2829
5.28072
15.1204
4.64835
15.2268
1.76053
14.005
2.98775
13.9825
0.769225
14.7296
-0.985717
13.5915
0.457429
13.4123
-1.67327
13.1385
-0.31464
14.5614
-2.03866
17.4298
-3.17826
16.8667
2.08204
13.3122
5.34135
11.77
1.59969
13.1406
-3.59239
13.0264
-1.02689
12.2317
1.3437
11.5275
2.32527
9.3822
3.89947
8.20151
1.57093
6.80717
1.6593
5.63632
0.578627
7.32074
-3.6136
9.54213
-3.29828
11.6388
-2.89252
13.2784
-2.12586
12.3808
1.88502
11.2726
2.43033
10.5108
1.85744
9.5942
1.41886
8.82868
1.89213
8.59481
1.05405
8.35759
0.179406
7.39726
0.374259
7.32563
-1.25567
7.38636
-0.259052
9.54207
-2.93398
11.8097
-2.76555
11.9491
-0.0816824
12.1888
-0.984597
12.7333
-1.36628
12.7601
-0.656896
12.1275
0.17007
13.3679
-3.27595
13.1931
0.149415
10.9558
5.51044
9.83612
4.02753
9.3934
2.44859
7.59876
4.09179
4.45028
4.62358
1.62218
3.62399
0.947822
1.34964
0.796496
1.48801
-0.0420524
1.65608
-0.37933
-0.813882
0.525298
-2.68561
4.70184
-7.16313
7.13929
-3.96588
6.99711
-0.320004
6.78346
0.258959
5.14703
2.8222
3.26412
3.21305
2.35463
2.63886
2.3467
1.10186
2.44791
-0.147696
2.13325
-0.360804
1.83214
-0.207768
3.09146
-2.98415
4.00579
-2.9376
2.00955
2.13862
-1.11168
5.51634
-2.73009
3.87505
-2.36393
0.00454002
0.158552
-4.2667
4.81401
-8.0768
7.63599
-4.5456
7.81039
-0.308453
6.81025
0.87586
4.66096
2.6483
3.02634
3.3272
2.37842
2.39067
3.68444
-2.47458
5.72213
-4.97385
6.29629
-1.96846
5.48874
1.71616
4.51155
2.8283
2.94928
3.08446
1.74856
1.72858
0.694466
1.85918
-1.16783
2.97528
-2.27329
2.13161
-3.00499
2.97257
-2.50099
1.52454
-2.57104
0.995429
-3.20424
1.28169
-3.00227
0.366414
-3.66087
1.20291
-4.27237
0.318459
-6.12443
2.59909
-5.92826
-0.862958
-3.3275
-5.67501
-2.65434
-2.01395
-0.00299572
-4.47379
3.05925
-4.82807
4.42377
-2.68852
4.03538
0.448743
2.33098
2.34183
1.07855
1.25278
0.418647
0.970047
1.2921
-1.62777
2.72235
-3.25556
4.26123
-4.31012
6.47851
-4.83314
8.61198
-3.64998
9.75119
-2.28758
9.46014
-0.685032
8.47949
0.115488
8.29632
-0.685145
9.08675
-0.822514
10.7592
-1.60832
10.4132
1.5959
9.00998
4.33464
6.71374
6.40817
2.85723
7.20167
0.881216
3.13418
0.308881
1.30167
-1.13237
2.73521
-1.35881
1.95578
-1.07012
0.632418
-2.02479
1.84792
-1.27431
-0.780599
-0.672492
-1.57342
-1.29613
0.0271308
-1.23135
-0.864529
-0.0655139
-3.16935
3.12373
-5.91209
4.04287
-1.04655
2.45388
2.67518
1.5887
2.86991
0.326366
3.85041
-2.36651
4.94875
-4.82321
4.07915
-8.00031
4.6826
-9.25578
1.88075
-6.69222
-4.38392
-5.76659
-1.00065
-2.96485
-3.6239
2.1914
-8.14708
4.02223
-3.11336
4.15054
-1.63446
2.12822
1.90605
-0.608062
4.00208
-2.79286
3.09475
-4.653
2.31644
-5.73179
1.89177
-4.24006
-2.57854
-0.618881
-6.68505
-0.529548
1.08557
-2.95978
5.95699
-5.04478
4.66329
-5.93418
2.04003
-5.02568
-1.99063
-4.26402
-2.95312
-4.55342
-1.14253
-3.75629
-1.92416
-2.84904
-1.2287
-0.826079
-1.66428
0.910591
-0.00716454
-0.488936
4.56329
-3.09516
5.00798
-6.9359
6.52531
-7.4647
0.781245
-4.7436
-6.05785
-5.01239
-1.42139
-6.56134
0.739407
-6.68908
-0.941473
-12.1686
20.7009
-65.8208
41.9563
-65.8952
64.6994
-64.4469
87.8655
-65.1079
110.091
-66.7081
129.868
-68.2748
151.369
-71.1397
174.535
-65.443
198.042
-66.6828
223.082
-73.3912
246.733
-72.5906
269.322
-73.2376
293.518
-76.2986
319.53
-78.6646
345.771
-82.1404
371.598
-83.6446
398.623
-83.991
428.087
-86.918
458.804
-89.0287
489.539
-91.3055
521.038
-96.0446
554.149
-100.987
588.551
-103.479
624.243
-104.287
661.486
-106.311
699.746
-108.938
736.998
-108.234
772.811
-109.776
808.794
-115.603
846.789
-121.349
886.753
-124.913
928.682
-129.401
972.398
-133.437
1016.51
-133.996
1060.79
-131.916
1105.57
-128.872
1152.19
-129.793
1199.96
-132.637
1247.6
-135.266
1294.43
-134.37
1338.83
-132.289
1382.29
-133.961
1428.34
-137.767
1476.21
-141.7
1522.95
-143.75
1567.64
-140.412
1610.53
-134.151
1653.05
-129.155
1697.32
-126.721
1743.57
-129.966
1789.79
-135.472
1832.97
-135.929
1874.01
-132.755
1920.93
-135.562
1975
-143.289
2023.16
-138.291
2059.29
-119.071
2096.25
-112.12
2142.37
-120.551
2186.58
-119.75
2220.1
-111.459
2253.05
-111.644
2292.14
-112.935
2327.25
-104.506
2360.88
-103.3
2404.76
-117.208
2438.55
-106.571
2448.32
-63.4751
2474.36
-59.3124
2528.38
-107.249
2555.42
-99.2593
2556.71
-23.1016
2591.45
-34.2014
2623.91
-116.444
2589.86
-50.8661
2572.39
60.1686
2650.24
-50.0541
2705.01
-142.074
2651.56
18.6172
2620.72
66.3467
2681.5
-75.1385
2713.17
-34.3263
2671.33
43.0726
2636.14
-15.8307
2636.04
64.7601
2653.33
112.377
2657.94
-83.8081
2619.95
-46.9729
2590.45
195.153
2611.38
62.9042
2599.25
-97.3345
2540.17
120.033
2531.24
162.371
2540.02
-30.1429
2488.63
47.1194
2442.84
170.743
2438.75
86.9634
2411.14
59.4862
2357.68
94.2164
2327.45
81.4773
2326.97
96.0824
2311.95
81.2689
2241.9
47.2402
2174.78
132.79
2184
183.103
2185.46
67.0012
2101.9
21.5665
2047.05
123.561
2072.27
142.338
2042.32
71.6757
1948.95
82.6622
1934.87
112.914
1967.02
72.0943
1910.15
66.4597
1825.88
121.806
1828.81
112.443
1847.36
45.984
1797.18
32.8197
1750.52
64.7082
1765.62
67.3203
1769.05
49.2304
1714.49
53.2752
1673.29
62.0342
1690.79
47.5138
1704.62
35.7524
1665.52
50.5293
1620.8
59.666
1626.69
30.4002
1663.75
-18.0762
1675.78
-36.9608
1648.14
1.67134
1613.34
65.294
1604.14
84.9097
1626.3
23.1928
1665.53
-84.2164
1698.13
-153.644
1700.57
-131.968
1668.26
-28.0965
1629.68
86.3908
1626.94
121.694
1671.63
54.1346
1731.94
-57.3685
1769.95
-141.204
1775.21
-172.91
1763.98
-163.154
1757.13
-125.061
1765.16
-73.769
1790.64
-23.9836
1837.74
4.15661
1902.99
-8.50443
1963.65
-55.6237
1998.19
-104.962
2008.49
-127.388
2011.59
-117.458
2017.25
-92.8366
2020.25
-66.541
2017.98
-31.6169
2024.03
0.987066
2046.15
6.98496
2065.36
-0.668763
2054.39
18.6273
2009.87
71.3114
1953.76
116.908
1899.59
133.554
1835.1
155.522
1744.71
220.737
1632.08
307.352
1512.03
368.65
1397.14
387.036
1293.07
368.434
1198.46
332.562
1112.87
294.498
1035.62
261.838
966.05
232.449
903.855
206.6
848.288
182.038
798.223
158.061
753.5
140.228
712.023
129.748
672.962
121.165
639.011
108.663
607.244
99.0521
575.943
94.0894
548.197
86.0066
523.911
78.085
501.01
72.4867
477.705
69.8532
456.871
61.9255
439.041
53.6898
422.244
50.6464
406.761
47.3119
390.533
47.0036
374.243
45.7932
360.742
40.1441
349.287
37.5328
338.948
36.3571
328.715
36.1824
315.796
39.769
303.113
37.1232
291.902
34.3714
280.024
33.3502
269.196
30.4553
260.582
27.5424
251.933
28.2292
243.685
27.8569
236.784
24.6823
228.631
25.982
219.029
25.3971
209.933
23.7242
203.703
19.6876
198.715
16.9498
193.704
15.0523
187.313
17.3986
180.69
17.9512
177.046
11.3393
172.955
12.3149
167.577
14.0702
164.461
11.3165
162.167
10.8622
157.806
13.6772
151.7
17.7821
143.863
21.7797
137.627
16.7454
134.625
8.40353
133.362
3.77438
130.782
6.2626
125.563
12.2206
122.177
8.53601
121.823
1.8839
122.677
-0.335965
120.355
7.73802
115.156
13.8358
112.435
7.29614
109.865
5.74872
106.804
7.89891
105.691
7.11577
103.336
9.92745
98.2494
15.4443
94.3006
11.9549
91.0423
8.49669
86.4617
10.5419
84.362
3.84295
84.3686
-0.27736
82.9965
3.86688
78.407
10.5188
73.2486
13.3742
71.8626
6.21774
73.2878
-0.588968
74.5196
0.306089
72.4714
5.91323
68.5124
9.75294
67.5242
5.73943
67.889
3.0687
65.8906
7.7076
62.4584
9.48192
60.3948
4.53305
58.9065
3.21624
57.6734
3.86431
55.9106
5.12686
52.4875
9.52114
50.2672
6.56552
50.0341
2.46535
50.1166
3.29566
47.9669
7.93364
44.3439
10.968
41.8196
8.82899
39.4043
7.68298
36.2064
8.30713
36.0496
-0.482865
38.2855
-8.6648
38.5262
-4.89872
38.0784
-2.42186
37.3207
0.479245
36.528
2.2485
35.4823
4.37231
35.2603
2.41093
35.8099
-0.000701636
34.7621
3.12183
32.9052
5.02185
31.6402
3.34134
32.0104
-0.37354
31.5519
2.52088
29.053
8.09106
27.9525
5.95364
27.7666
2.57254
26.5169
3.61937
26.1337
1.93349
27.0376
-0.776851
27.8745
-1.87462
26.7078
3.6112
25.1913
5.44898
26.5409
-1.90204
28.4033
-4.79472
28.072
-0.776203
28.8904
-2.00026
29.4441
-0.473829
27.0182
5.982
25.4429
5.16821
24.2023
4.18578
22.5768
4.19589
22.4347
1.08613
22.5021
-0.442869
22.5872
0.0395684
22.3532
0.446265
21.9536
-1.91401
23.0459
-5.81804
23.0496
-1.32077
22.1582
2.44203
19.8595
6.35582
15.4534
10.2432
12.7338
6.23271
13.1632
-2.03106
11.5355
2.72453
9.5818
4.47701
10.2472
-0.689363
9.34844
3.21268
6.95453
6.31818
5.72853
3.40479
8.89635
-7.74289
12.8212
-8.30916
14.2772
-1.35173
13.8241
2.02145
12.1371
4.17739
13.0193
-2.596
14.2308
-4.31021
13.1918
1.58106
12.337
1.08832
13.0006
-2.47324
14.7708
-6.68817
16.352
-10.2829
19.1343
-12.4231
20.8774
-5.56751
20.7962
0.371741
19.3361
4.52272
16.9801
7.5452
14.5824
7.59905
13.1256
6.00164
14.2056
0.575822
13.9492
3.14427
14.9732
-0.295223
16.6178
-2.63397
15.5966
1.41467
15.2817
-1.45361
14.9518
-0.102909
15.7343
-2.86389
17.5453
-5.08256
16.5917
2.88692
12.5447
9.31496
10.435
3.57213
12.4718
-5.7718
12.7566
-1.40012
11.6496
2.51195
10.5216
3.50815
8.21332
6.26371
6.95311
2.90257
4.95434
3.61829
3.79799
1.65295
5.94686
-5.56282
7.52323
-4.86874
9.11194
-4.45607
10.9125
-3.97478
10.4468
2.28752
9.62549
3.17463
9.32826
2.19779
9.22697
1.48913
8.36017
2.69086
7.72358
1.64358
7.58191
0.0883581
7.24211
0.66806
7.8018
-1.86436
7.91354
-0.440131
9.38364
-4.35823
11.321
-4.66809
11.8347
-0.578666
12.3401
-1.48067
13.1589
-2.17881
12.7916
-0.312929
12.0952
0.852271
14.2626
-5.45725
14.5001
-0.136351
11.8206
8.05682
10.092
5.59817
10.2463
2.06834
9.41982
4.77229
5.64672
8.22975
2.48476
6.66609
2.54681
1.27288
2.51494
1.52046
1.168
3.0019
0.99208
-0.670291
2.42135
-4.22411
5.39288
-10.2121
6.1015
-4.70739
5.89084
-0.168891
6.5659
-0.488162
5.57495
3.72248
4.06168
4.66705
3.35082
3.2681
3.5396
0.898336
4.62453
-1.23188
4.80813
-0.525264
3.6499
0.952414
3.59894
-3.04373
4.12701
-3.65512
2.45371
3.75612
-1.08618
9.00651
-2.9144
5.62014
-2.83721
-0.0355768
-1.39199
-5.70951
2.78278
-12.2034
5.67892
-7.44593
6.27793
-0.845581
5.66725
1.37048
3.82034
4.32422
2.5648
4.48312
1.09397
3.81753
1.80751
-3.19953
4.82986
-8.07989
5.91071
-3.11448
4.89315
2.71402
3.13495
4.57791
1.26008
4.84336
1.11771
1.85691
0.562757
2.39687
-0.946952
4.49578
-1.60154
2.76151
-2.17113
3.53035
-1.30259
0.532556
-0.50474
0.261152
-0.123915
0.875976
-0.078701
0.243057
-1.13406
2.21527
-1.26069
0.419205
-3.61787
4.9885
-4.49578
-0.00934814
-1.8868
-8.35779
-1.66101
-2.23786
-0.315999
-5.70028
2.41686
-7.62899
4.10292
-4.28061
3.74736
0.856455
2.05648
4.03655
0.694267
2.62737
-0.226616
1.79873
0.117936
-2.01842
1.22316
-4.2433
2.76138
-5.84054
4.47404
-6.58933
5.96918
-5.24805
7.15635
-3.45621
6.88266
-0.426929
6.18923
0.916279
6.25629
-0.755245
7.00633
-1.66365
9.07613
-3.69789
9.19375
1.48094
8.18772
5.35357
6.17952
8.4612
2.3049
11.041
1.28608
4.18884
1.47992
1.02158
-0.0710857
4.28327
-0.741729
2.67864
-0.357049
0.24314
-0.487852
1.87243
0.741148
-2.06736
1.57363
-2.33385
1.11911
0.559928
1.1246
-0.83684
2.7778
-4.77659
5.57286
-8.70846
5.34022
-0.806982
3.66803
4.40585
2.58127
3.94507
1.37992
5.0301
-0.688247
6.95009
-2.7828
5.98642
-6.28177
8.14689
-7.17607
2.74116
-3.42933
-8.13819
-2.4742
-1.9608
-1.32597
-4.83397
2.17605
-11.7001
3.79361
-4.7142
4.4741
-2.24487
2.97519
3.40493
0.39748
6.57828
-2.21358
5.79517
-5.01794
5.21913
-6.25558
3.20927
-4.89607
-3.98196
-2.29663
-9.28971
-3.16708
1.93822
-5.99294
8.83869
-8.1404
6.83842
-8.49672
2.34049
-6.41808
-4.16204
-4.37432
-5.04589
-4.27901
-1.26266
-3.22608
-2.91623
-2.11328
-2.35453
-0.436813
-3.28487
1.92636
-2.44819
1.85429
4.60895
-0.153122
7.021
-4.11258
10.5878
-4.60601
1.22277
-0.665508
-9.96304
-0.45785
-1.82607
-3.82357
4.00284
-5.80447
0.93393
-18.1127
20.7363
-86.2279
40.5812
-85.4123
61.2083
-84.7483
83.7479
-87.3255
105.632
-88.2741
124.505
-86.8344
144.021
-90.3476
166.197
-87.3158
188.373
-88.5622
211.694
-96.4207
234.853
-95.4618
257.931
-96.0312
282.316
-100.403
308.061
-104.131
333.744
-107.546
358.512
-108.137
384.578
-109.783
413.931
-115.999
445.797
-120.622
476.738
-121.974
506.275
-125.313
536.663
-131.109
569.002
-135.555
604.125
-139.148
641.7
-143.63
680.098
-147.086
717.794
-145.688
755.309
-147.065
793.851
-153.93
834.711
-161.998
877.75
-167.739
920.893
-172.325
963.271
-175.587
1005.65
-176.136
1048.41
-174.429
1091.91
-172.12
1138.03
-175.674
1186.53
-180.885
1235.27
-183.749
1282.37
-181.199
1327.82
-177.467
1374.39
-180.267
1422.46
-185.566
1469.02
-187.991
1513.31
-187.748
1556.05
-182.858
1598.14
-175.94
1642.62
-173.343
1691.3
-175.123
1741.12
-179.537
1788.1
-182.218
1830.52
-178.104
1870.92
-172.914
1915.27
-179.671
1964.64
-192.378
2012.8
-186.161
2055.12
-161.137
2094.93
-151.679
2139.16
-164.571
2185.77
-166.084
2220.78
-146.312
2247.6
-138.324
2291.06
-156.148
2342.51
-155.855
2366.27
-126.966
2379.72
-130.271
2423.16
-149.604
2468.61
-108.648
2484.4
-75.1373
2511.83
-134.367
2561.28
-148.366
2583
-44.5936
2586.28
-37.2922
2601.97
-131.732
2606.47
-55.0379
2608.77
57.8894
2643.32
-84.2755
2671.02
-169.156
2660.02
29.7996
2654.45
72.4963
2673.85
-94.1217
2685.61
-45.4194
2664.36
64.4383
2639.17
10.2419
2658.11
46.3756
2681.04
89.5937
2633.6
-36.378
2586.94
0.776979
2618.96
163.9
2625.98
56.049
2561.86
-32.9003
2543.24
139.625
2561.74
144.279
2522.1
9.79449
2465
104.992
2448.09
188.508
2447.28
88.3791
2423.33
83.8278
2359.61
158.438
2314.24
127.906
2331.27
79.5096
2307.33
105.728
2205.24
150.139
2174.41
164.869
2216.42
141.776
2159.42
124.43
2055.17
126.576
2064.95
114.658
2085.78
122.041
1992.03
165.775
1926.08
149.214
1967.56
72.3715
1961.43
79.1072
1870.57
157.841
1838.52
154.49
1861.87
89.9415
1824.19
84.2631
1758.69
98.7889
1756.21
67.7742
1771.41
52.7299
1729.95
91.0385
1678.37
105.428
1680.42
60.5922
1697.45
31.1306
1674.58
59.2265
1638.44
87.1695
1632.61
66.0842
1641.77
21.7996
1634.33
-10.1266
1613.35
-15.479
1598.98
16.6219
1596.19
68.6313
1598.71
82.8102
1605.66
16.4268
1614.77
-92.8067
1610.61
-148.911
1585.24
-105.716
1560.07
-2.22142
1569.42
77.4881
1619.86
71.6517
1680.81
-6.58483
1720.6
-97.0564
1731.27
-151.572
1717.49
-158.814
1693.26
-138.508
1680.8
-112.094
1699.99
-92.5336
1758.03
-81.4861
1842.63
-80.008
1921.7
-87.377
1962.97
-96.8897
1963.82
-105.895
1950.06
-113.699
1948.33
-115.767
1960.78
-105.327
1970.79
-76.694
1976.64
-37.7312
1992.85
-15.8397
2013.93
-15.0982
2010.12
1.75723
1967.59
59.3834
1906.5
130.317
1850.9
169.908
1793.7
187.938
1711.23
234.478
1601.22
327.252
1483.29
421.117
1374.76
472.935
1280.83
477.606
1197.61
448.69
1120.51
407.017
1049.27
363.783
983.438
326.049
923.374
291.299
868.827
260.238
819.123
231.085
773.993
202.754
732.812
181.135
694.008
168.334
657.56
157.493
625.514
140.585
595.219
129.283
565.515
123.644
539
112.483
515.207
101.794
493.541
94.225
471.525
91.8083
451.082
82.4317
432.958
71.8236
416.186
67.6219
400.86
62.6866
385.256
62.7963
369.123
62.0448
355.656
53.6832
344.976
48.4268
335.176
46.195
324.885
46.3616
312.205
52.5321
300.267
49.1693
289.226
45.4153
277.605
45.3051
267.772
40.3264
260.153
35.2088
251.727
36.7664
243.279
36.3267
236.497
31.4871
229.31
33.2473
220.299
34.5382
211.142
32.9927
203.923
26.8154
197.388
23.4261
192.077
20.3468
186.821
22.7143
180.27
24.384
176.016
15.4839
172.133
16.0169
166.411
19.6971
162.23
15.4138
159.863
13.1906
156.723
16.7185
152.101
22.3795
144.638
29.1894
137.786
23.6765
134.082
12.1514
131.312
6.49664
127.968
9.57884
123.932
16.124
121.314
11.0165
119.716
3.32634
119.116
0.056324
117.794
8.94811