/*--------------------------------*- C++ -*----------------------------------*\
| =========                 |                                                 |
| \\      /  F ield         | OpenFOAM: The Open Source CFD Toolbox           |
|  \\    /   O peration     | Version:  v2012                                 |
|   \\  /    A nd           | Website:  www.openfoam.com                      |
|    \\/     M anipulation  |                                                 |
\*---------------------------------------------------------------------------*/
FoamFile
{
    version     2.0;
    format      ascii;
    class       volScalarField;
    location    "500";
    object      T;
}
// * * * * * * * * * * * * * * * * * * * * * * * * * * * * * * * * * * * * * //

dimensions      [0 0 0 1 0 0 0];


internalField   nonuniform List<scalar> 
65536
(
295.171
295.173
295.175
295.179
295.185
295.192
295.199
295.208
295.218
295.23
295.243
295.258
295.274
295.291
295.31
295.329
295.348
295.369
295.39
295.412
295.435
295.458
295.481
295.504
295.526
295.549
295.572
295.595
295.618
295.64
295.662
295.681
295.699
295.715
295.73
295.743
295.756
295.769
295.781
295.792
295.803
295.813
295.821
295.828
295.834
295.838
295.84
295.842
295.842
295.843
295.843
295.842
295.84
295.836
295.831
295.824
295.817
295.809
295.8
295.792
295.783
295.772
295.759
295.746
295.732
295.716
295.697
295.681
295.664
295.644
295.622
295.606
295.588
295.56
295.537
295.522
295.5
295.467
295.444
295.424
295.398
295.368
295.337
295.306
295.286
295.257
295.211
295.176
295.155
295.11
295.061
295.031
294.997
294.947
294.904
294.867
294.818
294.768
294.72
294.669
294.615
294.555
294.493
294.437
294.379
294.31
294.243
294.183
294.122
294.048
293.976
293.91
293.834
293.752
293.677
293.602
293.519
293.438
293.362
293.283
293.202
293.122
293.043
292.963
292.878
292.796
292.718
292.639
292.555
292.474
292.395
292.323
292.248
292.172
292.094
292.02
291.949
291.879
291.808
291.731
291.659
291.594
291.538
291.489
291.444
291.4
291.354
291.312
291.274
291.243
291.22
291.208
291.208
291.222
291.247
291.286
291.344
291.434
291.575
291.774
292.033
292.354
292.749
293.209
293.747
294.333
294.953
295.592
296.224
296.822
297.364
297.837
298.236
298.558
298.805
298.981
299.098
299.174
299.225
299.26
299.283
299.299
299.31
299.318
299.322
299.324
299.323
299.32
299.315
299.31
299.304
299.298
299.292
299.286
299.282
299.277
299.276
299.274
299.27
299.267
299.264
299.259
299.254
299.25
299.245
299.24
299.235
299.23
299.225
299.223
299.218
299.219
299.221
299.224
299.227
299.227
299.23
299.231
299.232
299.232
299.232
299.233
299.233
299.236
299.239
299.242
299.244
299.247
299.249
299.249
299.249
299.246
299.245
299.242
299.24
299.239
299.239
299.24
299.242
299.244
299.248
299.252
299.255
299.259
299.264
299.27
299.272
299.276
299.28
299.281
299.281
299.278
299.275
299.271
299.268
299.262
299.257
299.253
299.25
299.249
299.249
299.249
299.247
299.245
299.242
299.238
299.232
299.226
299.217
299.21
299.205
299.202
299.197
299.195
299.192
299.192
299.192
299.197
299.202
299.21
299.219
299.225
299.232
299.235
299.239
299.241
299.244
299.246
299.248
299.251
299.252
299.255
299.255
299.254
299.253
299.251
299.251
299.25
299.248
299.247
299.245
299.243
299.243
299.241
299.239
299.239
299.236
299.235
299.231
299.228
299.225
299.219
299.215
299.211
299.211
299.211
299.214
299.217
299.221
299.224
299.228
299.231
299.235
299.238
299.241
299.243
299.244
299.244
299.243
299.241
299.239
299.236
299.233
299.23
299.228
299.226
299.225
299.225
299.227
299.225
299.225
299.224
299.224
299.223
299.222
299.223
299.222
299.221
299.218
299.217
299.214
299.211
299.208
299.204
299.199
299.195
299.192
299.191
299.192
299.194
299.198
299.2
299.202
299.202
299.204
299.204
299.206
299.208
299.212
299.217
299.221
299.226
299.23
299.233
299.237
299.241
299.246
299.248
299.248
299.247
299.244
299.24
299.237
299.232
299.23
299.23
299.23
299.231
299.233
299.233
299.232
299.229
299.227
299.228
299.228
299.233
299.241
299.25
299.258
299.264
299.269
299.272
299.276
299.277
299.277
299.277
299.276
299.272
299.269
299.266
299.262
299.257
299.253
299.251
299.247
299.244
299.243
299.245
299.245
299.247
299.249
299.251
299.252
299.252
299.251
299.248
299.247
299.247
299.245
299.246
299.247
299.246
299.246
299.244
299.243
299.243
299.241
299.243
299.245
299.247
299.249
299.25
299.25
299.249
299.248
299.245
299.243
299.24
299.236
299.235
299.233
299.234
299.235
299.238
299.241
299.245
299.248
299.25
299.251
299.25
299.25
299.249
299.249
299.25
299.253
299.254
299.256
299.26
299.263
299.264
299.264
299.262
299.257
299.252
299.245
299.24
299.236
299.23
299.226
299.22
299.215
299.212
299.208
299.201
299.2
299.198
299.198
299.198
299.201
299.207
299.212
299.217
299.222
299.226
299.229
299.231
299.232
299.235
299.235
299.236
299.236
299.234
299.231
299.226
299.222
299.215
299.208
299.201
299.194
299.185
299.177
299.175
295.063
295.064
295.066
295.07
295.076
295.083
295.091
295.097
295.108
295.121
295.135
295.15
295.166
295.183
295.202
295.221
295.24
295.261
295.282
295.305
295.328
295.352
295.375
295.398
295.42
295.443
295.466
295.49
295.515
295.538
295.56
295.581
295.599
295.615
295.629
295.641
295.653
295.666
295.679
295.69
295.702
295.712
295.722
295.729
295.736
295.74
295.742
295.741
295.741
295.741
295.743
295.745
295.744
295.739
295.732
295.726
295.72
295.71
295.7
295.692
295.691
295.681
295.661
295.65
295.635
295.62
295.599
295.585
295.566
295.54
295.522
295.511
295.482
295.458
295.443
295.42
295.359
295.348
295.338
295.322
295.281
295.245
295.227
295.202
295.166
295.132
295.103
295.068
295.019
294.985
294.949
294.918
294.873
294.831
294.789
294.746
294.697
294.649
294.604
294.549
294.494
294.433
294.374
294.312
294.24
294.18
294.119
294.065
293.992
293.922
293.859
293.782
293.696
293.624
293.548
293.467
293.387
293.313
293.233
293.154
293.067
292.986
292.915
292.826
292.742
292.663
292.588
292.508
292.426
292.334
292.259
292.183
292.117
292.035
291.963
291.89
291.818
291.737
291.652
291.58
291.512
291.451
291.405
291.361
291.317
291.264
291.218
291.17
291.123
291.086
291.064
291.058
291.063
291.077
291.105
291.151
291.21
291.273
291.363
291.54
291.8
292.123
292.532
292.997
293.568
294.192
294.839
295.502
296.162
296.77
297.309
297.765
298.143
298.445
298.675
298.841
298.957
299.038
299.086
299.118
299.144
299.158
299.169
299.179
299.182
299.187
299.185
299.182
299.179
299.165
299.16
299.153
299.149
299.145
299.137
299.138
299.133
299.129
299.131
299.127
299.121
299.117
299.111
299.102
299.101
299.095
299.09
299.079
299.075
299.068
299.08
299.082
299.082
299.082
299.086
299.093
299.091
299.092
299.094
299.094
299.093
299.091
299.094
299.094
299.095
299.097
299.106
299.108
299.11
299.109
299.106
299.103
299.092
299.098
299.098
299.099
299.1
299.099
299.103
299.108
299.109
299.11
299.116
299.12
299.122
299.124
299.135
299.135
299.138
299.141
299.136
299.13
299.132
299.131
299.125
299.123
299.119
299.116
299.115
299.11
299.108
299.106
299.111
299.109
299.105
299.097
299.089
299.08
299.078
299.068
299.059
299.049
299.054
299.048
299.046
299.039
299.045
299.044
299.058
299.068
299.075
299.086
299.087
299.094
299.097
299.104
299.101
299.103
299.109
299.109
299.115
299.112
299.115
299.117
299.114
299.113
299.109
299.107
299.105
299.104
299.103
299.107
299.098
299.098
299.098
299.091
299.09
299.084
299.089
299.087
299.081
299.075
299.064
299.061
299.058
299.067
299.07
299.077
299.079
299.085
299.09
299.093
299.097
299.1
299.102
299.103
299.103
299.105
299.105
299.103
299.099
299.094
299.089
299.085
299.083
299.08
299.078
299.081
299.084
299.089
299.084
299.083
299.08
299.082
299.084
299.083
299.084
299.08
299.076
299.068
299.07
299.071
299.069
299.065
299.06
299.053
299.045
299.043
299.05
299.056
299.058
299.06
299.06
299.061
299.055
299.062
299.061
299.067
299.064
299.066
299.077
299.085
299.09
299.091
299.092
299.1
299.105
299.108
299.108
299.106
299.1
299.096
299.084
299.087
299.083
299.08
299.086
299.091
299.09
299.091
299.091
299.088
299.085
299.074
299.079
299.083
299.094
299.109
299.119
299.128
299.131
299.134
299.132
299.136
299.138
299.139
299.134
299.136
299.13
299.123
299.115
299.114
299.109
299.095
299.099
299.099
299.099
299.091
299.101
299.106
299.11
299.114
299.116
299.114
299.113
299.115
299.11
299.103
299.107
299.105
299.106
299.11
299.104
299.102
299.099
299.089
299.1
299.101
299.102
299.105
299.107
299.11
299.112
299.108
299.105
299.106
299.102
299.097
299.099
299.093
299.096
299.093
299.095
299.096
299.098
299.102
299.107
299.11
299.114
299.112
299.11
299.11
299.11
299.108
299.108
299.116
299.121
299.118
299.12
299.126
299.125
299.123
299.119
299.112
299.108
299.097
299.083
299.086
299.083
299.084
299.079
299.067
299.06
299.061
299.051
299.053
299.052
299.057
299.055
299.053
299.064
299.073
299.081
299.085
299.085
299.089
299.091
299.085
299.094
299.095
299.093
299.094
299.09
299.087
299.078
299.075
299.066
299.057
299.048
299.037
299.031
299.013
294.865
294.866
294.868
294.873
294.879
294.887
294.895
294.902
294.913
294.928
294.942
294.958
294.976
294.996
295.016
295.037
295.058
295.081
295.105
295.13
295.156
295.182
295.208
295.232
295.256
295.281
295.305
295.33
295.357
295.383
295.407
295.43
295.449
295.466
295.479
295.49
295.502
295.515
295.527
295.538
295.549
295.559
295.568
295.576
295.582
295.584
295.583
295.58
295.578
295.577
295.58
295.582
295.579
295.573
295.564
295.555
295.545
295.532
295.52
295.511
295.507
295.496
295.467
295.455
295.444
295.426
295.392
295.37
295.356
295.325
295.296
295.284
295.256
295.227
295.232
295.191
295.121
295.12
295.136
295.112
295.041
294.993
295.007
294.99
294.91
294.866
294.873
294.85
294.743
294.713
294.712
294.666
294.592
294.582
294.557
294.489
294.411
294.397
294.356
294.301
294.214
294.183
294.128
294.05
293.938
293.916
293.87
293.777
293.714
293.659
293.602
293.527
293.433
293.353
293.287
293.2
293.117
293.044
292.973
292.883
292.803
292.733
292.645
292.56
292.458
292.393
292.32
292.234
292.143
292.068
291.98
291.918
291.834
291.768
291.699
291.631
291.548
291.469
291.376
291.288
291.202
291.167
291.128
291.094
291.048
291.001
290.933
290.872
290.826
290.793
290.774
290.77
290.783
290.805
290.831
290.856
290.893
290.946
291.049
291.236
291.508
291.845
292.262
292.742
293.309
293.925
294.607
295.293
296.012
296.661
297.174
297.612
297.966
298.244
298.453
298.604
298.703
298.764
298.816
298.852
298.868
298.881
298.894
298.898
298.906
298.901
298.902
298.895
298.885
298.886
298.871
298.863
298.855
298.846
298.846
298.836
298.841
298.842
298.833
298.835
298.831
298.828
298.825
298.822
298.817
298.815
298.804
298.795
298.787
298.79
298.775
298.779
298.788
298.8
298.803
298.796
298.805
298.809
298.81
298.81
298.811
298.81
298.805
298.805
298.812
298.815
298.811
298.819
298.823
298.827
298.82
298.811
298.813
298.804
298.801
298.805
298.801
298.807
298.806
298.804
298.815
298.82
298.82
298.825
298.835
298.844
298.841
298.858
298.86
298.855
298.856
298.857
298.85
298.849
298.847
298.843
298.837
298.83
298.82
298.825
298.829
298.831
298.82
298.82
298.819
298.817
298.809
298.797
298.78
298.78
298.774
298.77
298.761
298.765
298.761
298.756
298.748
298.757
298.763
298.78
298.796
298.8
298.81
298.806
298.808
298.803
298.811
298.816
298.817
298.827
298.828
298.836
298.837
298.834
298.834
298.827
298.822
298.819
298.821
298.82
298.823
298.807
298.818
298.813
298.806
298.81
298.802
298.8
298.798
298.8
298.797
298.786
298.777
298.772
298.77
298.778
298.793
298.794
298.802
298.801
298.804
298.805
298.804
298.814
298.82
298.827
298.833
298.829
298.828
298.822
298.817
298.806
298.797
298.794
298.793
298.788
298.774
298.787
298.797
298.794
298.801
298.796
298.792
298.791
298.791
298.794
298.791
298.793
298.784
298.779
298.784
298.789
298.786
298.782
298.773
298.76
298.754
298.752
298.752
298.761
298.773
298.781
298.782
298.779
298.782
298.776
298.783
298.772
298.784
298.782
298.791
298.803
298.804
298.802
298.798
298.811
298.825
298.829
298.827
298.82
298.814
298.803
298.798
298.796
298.799
298.802
298.804
298.807
298.817
298.818
298.811
298.802
298.789
298.785
298.78
298.779
298.809
298.826
298.843
298.846
298.85
298.849
298.856
298.854
298.857
298.853
298.849
298.839
298.838
298.839
298.834
298.824
298.814
298.817
298.811
298.81
298.8
298.802
298.803
298.815
298.822
298.82
298.827
298.83
298.828
298.816
298.816
298.819
298.813
298.815
298.815
298.809
298.818
298.816
298.808
298.809
298.799
298.81
298.814
298.817
298.821
298.82
298.816
298.82
298.824
298.821
298.817
298.811
298.797
298.803
298.792
298.799
298.798
298.799
298.806
298.818
298.826
298.833
298.826
298.829
298.821
298.817
298.821
298.828
298.829
298.823
298.825
298.839
298.846
298.843
298.844
298.84
298.834
298.823
298.808
298.803
298.797
298.795
298.796
298.782
298.778
298.785
298.778
298.756
298.754
298.758
298.765
298.759
298.764
298.775
298.782
298.792
298.793
298.794
298.799
298.794
298.792
298.803
298.798
298.804
298.809
298.805
298.798
298.793
298.796
298.786
298.78
298.776
298.758
298.746
298.718
298.708
294.75
294.751
294.755
294.76
294.766
294.773
294.782
294.792
294.805
294.821
294.838
294.856
294.877
294.899
294.923
294.947
294.972
294.999
295.027
295.055
295.084
295.114
295.143
295.171
295.199
295.226
295.252
295.278
295.307
295.337
295.364
295.389
295.409
295.425
295.438
295.449
295.461
295.473
295.485
295.494
295.501
295.509
295.516
295.523
295.525
295.523
295.518
295.512
295.507
295.505
295.504
295.502
295.496
295.489
295.478
295.461
295.44
295.424
295.409
295.391
295.361
295.351
295.327
295.306
295.303
295.281
295.228
295.186
295.169
295.147
295.101
295.067
295.051
295.018
294.999
294.977
294.963
294.912
294.871
294.849
294.805
294.757
294.736
294.718
294.648
294.608
294.624
294.591
294.469
294.44
294.454
294.374
294.304
294.301
294.26
294.174
294.106
294.088
294.072
293.991
293.896
293.868
293.825
293.721
293.625
293.607
293.57
293.439
293.381
293.34
293.28
293.179
293.079
293.021
292.929
292.839
292.784
292.711
292.624
292.537
292.426
292.384
292.309
292.19
292.079
292.047
291.985
291.899
291.795
291.684
291.59
291.553
291.491
291.383
291.347
291.276
291.191
291.064
290.947
290.886
290.776
290.766
290.765
290.737
290.695
290.625
290.558
290.481
290.409
290.364
290.353
290.367
290.388
290.408
290.428
290.462
290.519
290.621
290.783
291.008
291.307
291.655
292.092
292.577
293.159
293.782
294.49
295.237
295.904
296.517
296.997
297.412
297.738
297.99
298.171
298.291
298.37
298.429
298.465
298.484
298.496
298.494
298.509
298.531
298.532
298.54
298.531
298.529
298.52
298.497
298.49
298.484
298.476
298.467
298.455
298.459
298.454
298.461
298.466
298.457
298.458
298.448
298.434
298.407
298.429
298.432
298.422
298.375
298.387
298.363
298.396
298.406
298.41
298.412
298.418
298.424
298.428
298.432
298.44
298.442
298.437
298.426
298.424
298.431
298.427
298.425
298.425
298.437
298.449
298.444
298.44
298.427
298.389
298.418
298.43
298.422
298.424
298.406
298.425
298.438
298.442
298.444
298.438
298.448
298.453
298.444
298.444
298.455
298.475
298.48
298.457
298.428
298.457
298.465
298.466
298.463
298.458
298.453
298.448
298.447
298.444
298.441
298.452
298.455
298.453
298.438
298.427
298.411
298.399
298.386
298.374
298.338
298.381
298.38
298.368
298.333
298.355
298.33
298.362
298.392
298.409
298.424
298.416
298.423
298.422
298.424
298.434
298.439
298.444
298.447
298.455
298.455
298.459
298.46
298.456
298.451
298.444
298.441
298.44
298.438
298.423
298.429
298.417
298.417
298.411
298.408
298.41
298.377
298.419
298.427
298.419
298.402
298.36
298.367
298.344
298.392
298.403
298.42
298.419
298.426
298.425
298.431
298.44
298.439
298.448
298.448
298.444
298.448
298.445
298.446
298.437
298.422
298.405
298.39
298.395
298.387
298.344
298.403
298.419
298.428
298.417
298.413
298.397
298.405
298.403
298.414
298.424
298.418
298.405
298.358
298.399
298.405
298.409
298.401
298.393
298.383
298.366
298.339
298.371
298.383
298.401
298.409
298.407
298.395
298.374
298.394
298.392
298.4
298.38
298.357
298.408
298.426
298.431
298.42
298.382
298.433
298.451
298.455
298.447
298.443
298.435
298.423
298.37
298.408
298.408
298.401
298.414
298.428
298.43
298.436
298.442
298.431
298.408
298.356
298.378
298.344
298.411
298.452
298.467
298.477
298.468
298.458
298.464
298.476
298.48
298.48
298.47
298.466
298.462
298.448
298.433
298.438
298.433
298.384
298.417
298.422
298.41
298.368
298.415
298.433
298.444
298.459
298.463
298.462
298.456
298.453
298.44
298.422
298.41
298.423
298.433
298.435
298.433
298.433
298.421
298.379
298.416
298.419
298.427
298.413
298.43
298.444
298.447
298.445
298.442
298.436
298.434
298.423
298.422
298.409
298.416
298.409
298.413
298.413
298.405
298.423
298.442
298.449
298.463
298.454
298.451
298.437
298.442
298.443
298.443
298.451
298.451
298.448
298.455
298.473
298.476
298.474
298.463
298.449
298.44
298.42
298.367
298.411
298.417
298.414
298.411
298.396
298.382
298.366
298.328
298.37
298.374
298.371
298.348
298.341
298.38
298.4
298.413
298.41
298.409
298.415
298.413
298.388
298.419
298.428
298.428
298.424
298.423
298.419
298.407
298.403
298.399
298.384
298.377
298.354
298.329
298.254
294.695
294.696
294.699
294.705
294.712
294.719
294.728
294.739
294.754
294.773
294.791
294.811
294.835
294.86
294.886
294.913
294.941
294.973
295.005
295.036
295.067
295.1
295.133
295.165
295.196
295.226
295.253
295.279
295.313
295.349
295.378
295.401
295.421
295.435
295.446
295.455
295.466
295.477
295.485
295.49
295.493
295.497
295.501
295.501
295.498
295.491
295.481
295.472
295.463
295.456
295.449
295.441
295.433
295.419
295.404
295.382
295.357
295.332
295.313
295.28
295.241
295.222
295.222
295.199
295.158
295.134
295.115
295.071
295.013
295.001
294.984
294.94
294.889
294.874
294.842
294.794
294.782
294.722
294.641
294.63
294.623
294.571
294.499
294.483
294.434
294.394
294.409
294.347
294.244
294.221
294.22
294.143
294.063
294.05
294.006
293.928
293.882
293.826
293.758
293.7
293.643
293.572
293.49
293.419
293.367
293.302
293.237
293.171
293.067
292.976
292.928
292.808
292.716
292.627
292.533
292.471
292.397
292.303
292.223
292.14
292.042
292.003
291.908
291.791
291.723
291.673
291.589
291.498
291.377
291.277
291.222
291.18
291.08
290.975
290.956
290.892
290.772
290.623
290.518
290.442
290.364
290.335
290.345
290.324
290.272
290.207
290.107
290.005
289.93
289.889
289.883
289.904
289.937
289.975
290.025
290.102
290.212
290.359
290.551
290.809
291.119
291.496
291.938
292.449
293.035
293.684
294.388
295.136
295.79
296.347
296.798
297.175
297.466
297.681
297.834
297.932
297.973
297.978
298.039
298.069
298.068
298.029
298.078
298.093
298.099
298.071
298.09
298.074
298.057
298.045
298.023
298.018
298.01
297.991
297.966
297.949
297.996
297.997
297.971
297.999
297.989
298.007
298.002
297.955
298.002
298.014
297.993
297.929
297.941
297.885
297.909
297.927
297.931
297.974
297.976
297.937
297.972
297.985
297.995
298.003
297.997
297.985
297.947
297.965
297.978
297.973
297.936
297.983
298.005
298.012
297.99
297.971
297.914
297.953
297.94
297.965
297.952
297.91
297.954
297.941
297.979
297.98
297.942
297.974
297.997
298
297.948
298.014
298.037
298.03
298.003
297.934
297.997
298.021
298.019
298.023
298.023
298.008
297.962
298.003
298.005
297.994
297.981
297.999
298.001
297.999
297.982
297.949
297.906
297.935
297.92
297.865
297.92
297.927
297.926
297.873
297.904
297.863
297.883
297.952
297.975
297.971
297.972
297.954
297.956
297.924
297.957
297.956
297.966
297.997
298.006
298.017
298.023
298.024
298.013
297.989
297.96
297.958
297.973
297.977
297.976
297.927
297.966
297.965
297.921
297.968
297.964
297.917
297.968
297.983
297.968
297.955
297.913
297.938
297.899
297.953
297.975
297.968
297.962
297.968
297.971
297.969
297.957
297.988
297.999
298.01
298.015
298.01
298.013
298.008
297.998
297.978
297.926
297.9
297.953
297.955
297.909
297.966
297.982
297.963
297.976
297.96
297.909
297.948
297.919
297.962
297.961
297.972
297.967
297.915
297.966
297.974
297.974
297.97
297.954
297.93
297.891
297.881
297.915
297.906
297.955
297.971
297.97
297.958
297.907
297.933
297.94
297.909
297.942
297.907
297.971
297.997
298.004
297.993
297.949
298.003
298.023
298.018
298.009
297.981
297.982
297.968
297.908
297.953
297.94
297.925
297.968
297.989
298.003
298.006
297.991
297.979
297.951
297.896
297.942
297.909
297.981
298.015
298.041
298.043
298.031
297.97
298.006
298.002
298.024
298.028
298.018
297.979
297.997
298.001
297.959
297.988
297.969
297.905
297.962
297.971
297.947
297.888
297.939
297.976
297.986
297.977
298.003
298.012
298.003
297.964
297.97
297.958
297.905
297.961
297.966
297.932
297.979
297.983
297.964
297.895
297.936
297.969
297.959
297.919
297.979
297.984
297.968
297.969
297.986
297.996
297.979
297.958
297.917
297.943
297.925
297.953
297.953
297.931
297.903
297.974
298.001
298.022
298.01
298.008
297.989
297.948
297.992
297.993
297.978
297.976
297.973
297.997
298.012
298.018
298.031
298.024
298.001
297.972
297.944
297.957
297.91
297.963
297.96
297.915
297.918
297.945
297.935
297.879
297.869
297.923
297.943
297.919
297.865
297.86
297.932
297.967
297.963
297.936
297.961
297.941
297.918
297.897
297.96
297.981
297.991
297.975
297.943
297.954
297.956
297.962
297.956
297.938
297.899
297.895
297.845
297.778
294.684
294.684
294.688
294.697
294.704
294.709
294.72
294.729
294.749
294.772
294.789
294.811
294.837
294.866
294.894
294.922
294.953
294.988
295.021
295.052
295.084
295.116
295.149
295.181
295.211
295.238
295.264
295.29
295.319
295.348
295.373
295.393
295.409
295.421
295.429
295.436
295.443
295.45
295.453
295.453
295.453
295.452
295.45
295.445
295.437
295.425
295.413
295.4
295.389
295.376
295.365
295.353
295.337
295.322
295.304
295.279
295.248
295.217
295.189
295.161
295.135
295.105
295.084
295.057
295.027
294.983
294.954
294.913
294.875
294.84
294.813
294.764
294.718
294.69
294.635
294.585
294.577
294.533
294.488
294.434
294.422
294.367
294.322
294.279
294.215
294.164
294.176
294.126
294.037
293.986
293.976
293.892
293.812
293.794
293.731
293.658
293.605
293.538
293.445
293.403
293.337
293.269
293.175
293.109
293.056
292.992
292.908
292.856
292.739
292.63
292.579
292.463
292.356
292.27
292.21
292.125
292.03
291.943
291.909
291.801
291.747
291.626
291.516
291.468
291.405
291.311
291.192
291.095
291.013
290.982
290.913
290.81
290.692
290.667
290.568
290.485
290.392
290.304
290.201
290.066
290.038
289.974
289.923
289.878
289.819
289.722
289.616
289.542
289.498
289.476
289.477
289.503
289.553
289.62
289.701
289.801
289.935
290.117
290.353
290.646
290.982
291.382
291.843
292.373
292.976
293.632
294.37
295.062
295.646
296.16
296.561
296.902
297.155
297.345
297.468
297.515
297.495
297.499
297.574
297.589
297.598
297.562
297.573
297.615
297.613
297.553
297.585
297.593
297.568
297.514
297.485
297.525
297.52
297.468
297.417
297.411
297.477
297.495
297.443
297.497
297.492
297.524
297.524
297.534
297.536
297.531
297.546
297.538
297.489
297.511
297.447
297.438
297.442
297.458
297.468
297.414
297.466
297.459
297.495
297.507
297.513
297.49
297.447
297.47
297.464
297.463
297.424
297.478
297.509
297.501
297.464
297.497
297.507
297.488
297.419
297.451
297.468
297.438
297.476
297.427
297.482
297.492
297.447
297.46
297.501
297.472
297.43
297.471
297.532
297.544
297.484
297.467
297.515
297.516
297.489
297.523
297.516
297.513
297.461
297.498
297.481
297.45
297.451
297.508
297.512
297.476
297.469
297.417
297.39
297.441
297.423
297.474
297.473
297.415
297.452
297.481
297.488
297.477
297.433
297.468
297.459
297.466
297.419
297.404
297.447
297.415
297.467
297.429
297.441
297.49
297.491
297.487
297.508
297.516
297.509
297.487
297.414
297.421
297.468
297.473
297.437
297.384
297.42
297.456
297.417
297.444
297.489
297.507
297.508
297.497
297.452
297.489
297.481
297.477
297.498
297.495
297.468
297.472
297.424
297.467
297.454
297.461
297.422
297.469
297.502
297.505
297.484
297.501
297.492
297.508
297.507
297.479
297.468
297.431
297.463
297.484
297.52
297.515
297.497
297.446
297.479
297.481
297.435
297.476
297.445
297.475
297.458
297.496
297.508
297.522
297.501
297.454
297.476
297.462
297.435
297.429
297.382
297.432
297.467
297.432
297.483
297.488
297.492
297.48
297.46
297.469
297.442
297.376
297.432
297.499
297.518
297.524
297.524
297.52
297.544
297.55
297.547
297.531
297.479
297.435
297.461
297.507
297.528
297.499
297.431
297.453
297.466
297.487
297.484
297.497
297.511
297.503
297.474
297.505
297.5
297.513
297.487
297.534
297.553
297.564
297.536
297.474
297.495
297.467
297.529
297.526
297.482
297.46
297.51
297.511
297.509
297.507
297.51
297.517
297.476
297.49
297.463
297.484
297.438
297.485
297.473
297.46
297.52
297.536
297.517
297.438
297.458
297.422
297.397
297.444
297.466
297.407
297.467
297.495
297.498
297.481
297.437
297.449
297.481
297.441
297.481
297.501
297.448
297.442
297.494
297.488
297.488
297.426
297.381
297.423
297.397
297.438
297.432
297.41
297.404
297.463
297.506
297.511
297.523
297.513
297.502
297.455
297.496
297.494
297.433
297.462
297.433
297.472
297.472
297.525
297.536
297.534
297.512
297.443
297.429
297.502
297.52
297.513
297.49
297.407
297.395
297.437
297.42
297.399
297.459
297.474
297.447
297.43
297.431
297.462
297.424
297.454
297.482
297.452
297.466
297.427
297.418
297.479
297.486
297.499
297.481
297.453
297.435
297.456
297.42
297.451
297.448
297.426
297.367
297.402
297.366
297.408
294.67
294.67
294.674
294.68
294.687
294.694
294.705
294.718
294.735
294.756
294.775
294.796
294.821
294.849
294.878
294.906
294.936
294.968
294.999
295.029
295.058
295.088
295.116
295.145
295.172
295.198
295.221
295.244
295.268
295.291
295.313
295.329
295.34
295.349
295.354
295.357
295.362
295.363
295.362
295.36
295.351
295.346
295.34
295.333
295.319
295.305
295.285
295.27
295.257
295.244
295.225
295.206
295.19
295.171
295.15
295.122
295.086
295.05
295.018
294.984
294.959
294.927
294.899
294.864
294.823
294.789
294.758
294.71
294.672
294.634
294.6
294.544
294.503
294.473
294.392
294.347
294.345
294.302
294.242
294.193
294.173
294.134
294.082
294.039
293.971
293.932
293.911
293.851
293.793
293.746
293.71
293.644
293.586
293.519
293.417
293.36
293.314
293.254
293.174
293.1
293.048
292.964
292.898
292.826
292.746
292.686
292.592
292.537
292.425
292.306
292.243
292.131
292.042
291.986
291.922
291.845
291.739
291.675
291.561
291.492
291.407
291.268
291.163
291.097
291.059
290.965
290.844
290.741
290.677
290.637
290.566
290.459
290.335
290.285
290.189
290.066
289.995
289.913
289.817
289.666
289.588
289.527
289.461
289.417
289.33
289.232
289.166
289.109
289.075
289.069
289.09
289.137
289.204
289.286
289.39
289.528
289.708
289.932
290.205
290.524
290.883
291.312
291.784
292.351
292.946
293.641
294.35
294.949
295.498
295.937
296.306
296.597
296.814
296.959
297.051
297.098
297.048
297.103
297.102
297.081
297.117
297.101
297.053
297.107
297.12
297.106
297.088
297.037
297.001
296.944
296.956
296.998
297.007
296.983
296.945
297.013
296.979
296.993
296.977
297.024
297.027
297.023
297.01
297.054
297.037
297.016
297.061
297.083
297.038
297.078
297.064
297.048
297.026
296.963
296.989
296.926
296.956
296.926
296.978
296.994
296.985
296.97
296.959
296.928
296.908
296.948
296.919
296.934
296.984
296.988
296.939
296.967
297.018
296.996
296.942
296.961
296.954
297.003
296.977
297.005
296.959
296.994
297.006
297.003
296.995
296.954
296.99
296.94
297.014
297.023
296.975
297.019
296.992
296.997
296.96
296.994
297.017
297.033
297.041
297.015
296.947
296.931
296.994
296.988
296.984
296.943
296.962
296.919
296.954
296.939
296.915
296.986
296.958
296.914
296.932
296.999
296.992
297.025
297.026
296.99
296.912
296.924
296.853
296.871
296.937
296.979
296.971
296.955
296.991
296.989
296.925
296.914
296.976
296.992
296.981
296.942
296.892
296.914
296.925
296.915
296.908
296.97
296.917
296.97
296.957
296.91
296.977
297.005
296.974
296.981
296.936
296.988
297.002
296.975
297.017
296.995
296.938
296.941
296.884
296.944
296.951
296.931
296.922
296.921
296.948
296.969
296.926
296.942
296.925
296.982
296.985
296.945
296.981
296.992
296.953
296.956
296.99
297.014
297.003
296.951
296.969
296.981
297.022
297.014
297.017
297.006
296.97
296.98
297.005
297.034
296.999
296.93
296.942
296.951
296.905
296.926
296.914
296.975
296.977
296.996
296.989
296.963
296.97
296.988
296.984
296.928
296.912
296.908
296.929
297.02
297.009
297.002
297.019
297.011
297.052
297.042
297.029
297.003
296.927
296.918
296.948
297.002
297.035
297.009
296.944
296.965
296.93
296.955
296.934
296.971
296.954
296.966
296.987
297.022
297.015
296.991
296.946
297.01
297.045
297.045
297.044
297.035
296.973
296.971
297.013
297.003
296.924
296.968
296.978
297.006
296.99
296.999
296.972
297.004
296.971
296.987
296.989
296.998
296.949
296.989
296.991
296.988
296.989
297.011
297.005
296.989
296.916
296.897
296.935
296.905
296.932
296.982
296.938
296.952
296.985
297.006
296.949
296.912
296.972
297.004
296.965
296.993
296.997
296.962
296.976
296.95
296.973
296.938
296.968
296.927
296.935
296.92
296.91
296.936
296.966
296.942
296.966
296.984
296.957
296.958
296.966
297.005
296.998
296.957
296.9
296.904
296.906
296.923
296.909
296.983
297.015
297.012
296.972
296.958
297.002
297.003
297.044
296.998
296.97
297.004
296.986
296.934
296.939
297.01
297.014
296.987
296.947
296.984
297.001
297.009
296.93
296.917
296.974
296.982
296.992
296.975
296.999
297.001
296.971
296.985
296.982
296.916
296.951
296.941
296.885
296.928
296.935
296.906
296.89
296.92
296.918
296.946
294.614
294.615
294.617
294.621
294.629
294.635
294.647
294.661
294.677
294.696
294.715
294.736
294.76
294.786
294.813
294.84
294.868
294.897
294.924
294.95
294.975
294.999
295.026
295.049
295.071
295.092
295.113
295.133
295.152
295.171
295.181
295.195
295.202
295.204
295.207
295.206
295.204
295.204
295.199
295.188
295.181
295.17
295.159
295.143
295.133
295.109
295.091
295.067
295.049
295.031
295.015
294.992
294.967
294.942
294.918
294.89
294.857
294.817
294.777
294.736
294.706
294.683
294.654
294.611
294.571
294.528
294.49
294.445
294.394
294.366
294.326
294.267
294.22
294.208
294.142
294.063
294.051
294.035
293.942
293.9
293.888
293.846
293.801
293.761
293.701
293.65
293.623
293.543
293.516
293.478
293.427
293.35
293.307
293.235
293.128
293.059
293.025
292.964
292.868
292.794
292.748
292.661
292.597
292.519
292.437
292.355
292.27
292.221