/*--------------------------------*- C++ -*----------------------------------*\
| =========                 |                                                 |
| \\      /  F ield         | OpenFOAM: The Open Source CFD Toolbox           |
|  \\    /   O peration     | Version:  v2012                                 |
|   \\  /    A nd           | Website:  www.openfoam.com                      |
|    \\/     M anipulation  |                                                 |
\*---------------------------------------------------------------------------*/
FoamFile
{
    version     2.0;
    format      ascii;
    class       volScalarField;
    location    "500";
    object      theta;
}
// * * * * * * * * * * * * * * * * * * * * * * * * * * * * * * * * * * * * * //

dimensions      [0 0 0 1 0 0 0];


internalField   nonuniform List<scalar> 
65536
(
-4.58327
-4.58206
-4.57948
-4.57532
-4.56974
-4.56308
-4.55558
-4.54698
-4.53681
-4.52485
-4.51132
-4.49648
-4.48044
-4.46327
-4.44512
-4.42614
-4.40638
-4.38582
-4.36443
-4.34231
-4.31967
-4.2968
-4.27393
-4.25119
-4.22854
-4.20583
-4.1829
-4.15976
-4.13673
-4.11438
-4.0932
-4.07351
-4.05556
-4.03938
-4.02476
-4.01127
-3.99848
-3.98607
-3.97403
-3.96252
-3.95181
-3.9421
-3.93352
-3.92635
-3.9208
-3.91686
-3.91442
-3.9131
-3.91239
-3.91203
-3.91208
-3.91288
-3.91498
-3.91863
-3.92392
-3.93063
-3.93817
-3.94617
-3.95446
-3.96291
-3.97216
-3.98312
-3.99589
-4.00901
-4.02288
-4.03922
-4.05739
-4.07425
-4.0907
-4.11121
-4.13241
-4.14848
-4.16709
-4.19444
-4.21746
-4.2332
-4.25476
-4.2879
-4.31077
-4.33102
-4.35687
-4.38639
-4.41749
-4.44833
-4.46827
-4.49744
-4.54392
-4.57921
-4.60018
-4.64476
-4.69329
-4.72383
-4.75796
-4.80778
-4.8505
-4.88799
-4.93714
-4.98703
-5.03523
-5.08584
-5.13985
-5.19935
-5.26137
-5.31802
-5.37553
-5.44479
-5.51186
-5.57148
-5.63259
-5.70716
-5.77837
-5.84477
-5.92026
-6.00267
-6.07757
-6.15282
-6.2354
-6.31676
-6.39282
-6.47141
-6.55276
-6.63306
-6.71206
-6.79128
-6.87662
-6.95838
-7.03659
-7.11608
-7.19939
-7.28077
-7.35936
-7.43138
-7.50678
-7.58282
-7.66047
-7.73443
-7.80539
-7.87529
-7.94721
-8.02357
-8.0958
-8.16044
-8.21684
-8.26589
-8.31116
-8.35501
-8.40046
-8.44312
-8.48037
-8.51134
-8.53468
-8.54716
-8.54652
-8.53258
-8.50731
-8.46838
-8.41029
-8.32053
-8.17973
-7.98043
-7.72198
-7.40048
-7.00564
-6.54563
-6.00812
-5.42181
-4.80127
-4.16302
-3.53051
-2.93282
-2.39116
-1.91794
-1.51903
-1.19678
-0.949857
-0.773881
-0.656347
-0.581053
-0.529779
-0.494534
-0.471776
-0.456169
-0.444448
-0.437132
-0.43241
-0.431211
-0.431776
-0.434692
-0.439897
-0.44439
-0.450809
-0.456828
-0.463176
-0.469009
-0.472892
-0.477258
-0.479071
-0.480959
-0.484671
-0.48783
-0.490759
-0.495346
-0.500458
-0.505085
-0.509863
-0.514296
-0.520073
-0.524736
-0.529566
-0.532142
-0.536458
-0.536047
-0.533517
-0.530298
-0.528113
-0.527301
-0.524948
-0.523654
-0.522907
-0.522526
-0.52233
-0.522157
-0.521897
-0.519086
-0.516009
-0.512975
-0.511205
-0.508126
-0.505959
-0.505508
-0.506245
-0.508795
-0.509705
-0.513218
-0.514804
-0.515445
-0.515549
-0.514603
-0.512689
-0.51025
-0.506853
-0.503011
-0.500015
-0.495402
-0.490383
-0.48524
-0.483033
-0.478436
-0.475135
-0.474141
-0.474149
-0.476296
-0.479802
-0.483502
-0.48695
-0.492611
-0.497826
-0.501884
-0.504856
-0.505545
-0.506135
-0.506064
-0.508114
-0.509544
-0.512651
-0.51684
-0.52291
-0.529213
-0.538219
-0.544464
-0.549715
-0.552718
-0.557867
-0.559847
-0.562639
-0.562535
-0.562551
-0.557883
-0.552822
-0.544339
-0.535626
-0.529411
-0.523213
-0.519265
-0.516056
-0.514132
-0.510577
-0.508254
-0.506883
-0.50396
-0.502742
-0.500154
-0.499955
-0.5005
-0.501505
-0.50337
-0.504186
-0.505231
-0.506295
-0.507439
-0.509459
-0.511989
-0.511639
-0.513609
-0.515898
-0.515998
-0.518562
-0.520196
-0.523686
-0.526433
-0.529814
-0.535415
-0.53992
-0.543429
-0.544046
-0.544094
-0.540706
-0.537944
-0.53376
-0.530502
-0.527217
-0.523417
-0.519788
-0.516903
-0.513928
-0.511907
-0.510637
-0.51078
-0.511718
-0.513408
-0.515891
-0.5188
-0.521719
-0.524854
-0.526885
-0.528824
-0.530098
-0.529332
-0.52823
-0.529642
-0.529661
-0.530879
-0.530915
-0.531657
-0.532415
-0.531897
-0.53295
-0.534222
-0.536283
-0.538117
-0.540979
-0.543709
-0.546834
-0.550656
-0.555452
-0.559636
-0.562591
-0.564081
-0.563172
-0.560766
-0.556903
-0.554406
-0.553001
-0.552951
-0.551076
-0.551195
-0.548973
-0.546515
-0.542479
-0.538055
-0.533891
-0.529238
-0.525007
-0.521379
-0.517312
-0.513355
-0.509108
-0.506831
-0.506436
-0.508134
-0.510734
-0.515051
-0.517444
-0.522821
-0.524622
-0.525013
-0.525209
-0.52408
-0.522056
-0.521859
-0.523077
-0.525338
-0.527937
-0.5272
-0.526477
-0.521438
-0.513306
-0.504822
-0.496613
-0.490463
-0.485692
-0.483036
-0.479152
-0.477386
-0.477298
-0.478016
-0.47915
-0.48295
-0.485789
-0.489114
-0.493002
-0.498135
-0.501915
-0.503259
-0.507783
-0.510464
-0.511681
-0.509705
-0.510134
-0.508038
-0.505826
-0.503694
-0.50311
-0.502924
-0.504216
-0.506549
-0.507672
-0.507741
-0.509399
-0.508305
-0.508033
-0.509079
-0.508749
-0.510616
-0.511835
-0.511305
-0.513956
-0.512219
-0.509596
-0.508072
-0.50584
-0.50499
-0.505178
-0.505427
-0.506937
-0.509577
-0.512169
-0.514724
-0.518604
-0.519939
-0.521622
-0.520919
-0.51945
-0.516942
-0.514109
-0.510099
-0.506699
-0.504584
-0.504155
-0.504351
-0.504891
-0.505916
-0.506149
-0.504395
-0.502104
-0.500937
-0.498828
-0.494606
-0.491772
-0.491023
-0.49076
-0.493051
-0.497555
-0.502372
-0.509457
-0.514558
-0.51827
-0.524497
-0.52923
-0.534749
-0.539366
-0.542403
-0.547162
-0.553266
-0.554952
-0.556871
-0.556255
-0.556646
-0.554214
-0.548208
-0.543229
-0.537303
-0.532678
-0.529056
-0.525422
-0.523426
-0.522878
-0.52015
-0.519883
-0.518529
-0.518549
-0.520958
-0.523921
-0.528436
-0.533161
-0.539634
-0.546345
-0.553698
-0.561159
-0.569705
-0.578047
-0.579329
-4.20114
-4.20029
-4.19855
-4.1944
-4.18824
-4.18088
-4.17339
-4.16678
-4.15667
-4.14336
-4.12973
-4.11475
-4.0985
-4.08122
-4.06243
-4.04329
-4.02405
-4.00363
-3.98214
-3.9595
-3.93588
-3.91216
-3.88912
-3.86674
-3.84421
-3.82133
-3.79825
-3.77412
-3.74958
-3.72606
-3.70409
-3.68361
-3.66519
-3.64923
-3.63566
-3.62365
-3.61154
-3.59866
-3.58565
-3.57387
-3.56262
-3.55179
-3.54271
-3.53481
-3.52806
-3.52407
-3.52265
-3.52279
-3.52354
-3.52302
-3.52082
-3.51902
-3.52001
-3.52526
-3.53272
-3.53859
-3.54426
-3.55427
-3.5644
-3.57191
-3.57337
-3.58331
-3.60304
-3.61437
-3.62935
-3.64438
-3.66485
-3.67921
-3.6978
-3.72409
-3.74179
-3.75361
-3.78192
-3.80618
-3.82116
-3.84418
-3.90549
-3.91606
-3.92595
-3.94204
-3.98299
-4.0189
-4.03707
-4.06206
-4.09799
-4.13224
-4.16078
-4.19591
-4.24485
-4.27876
-4.31526
-4.34618
-4.39117
-4.43279
-4.47489
-4.51857
-4.56742
-4.61514
-4.66028
-4.71553
-4.76978
-4.83162
-4.89063
-4.95227
-5.02434
-5.08414
-5.14501
-5.19912
-5.27262
-5.34219
-5.40558
-5.48189
-5.56844
-5.64044
-5.7164
-5.7968
-5.87713
-5.95099
-6.03089
-6.11022
-6.19705
-6.27823
-6.34886
-6.43836
-6.52246
-6.60131
-6.67648
-6.75609
-6.8383
-6.9306
-7.00511
-7.08092
-7.1475
-7.22909
-7.30125
-7.37379
-7.44611
-7.5274
-7.61192
-7.68457
-7.75199
-7.81312
-7.85963
-7.90359
-7.94714
-7.9999
-8.04618
-8.09387
-8.14101
-8.1784
-8.19981
-8.2058
-8.20109
-8.18749
-8.15915
-8.11348
-8.05433
-7.99118
-7.90106
-7.72461
-7.46391
-7.14106
-6.7321
-6.26692
-5.6961
-5.07245
-4.42534
-3.76178
-3.1019
-2.49389
-1.95546
-1.49966
-1.12111
-0.819191
-0.589568
-0.423458
-0.307268
-0.226693
-0.177812
-0.145876
-0.12074
-0.105825
-0.0953873
-0.0849455
-0.0818395
-0.077746
-0.0797004
-0.0821547
-0.0853685
-0.0990917
-0.104218
-0.1108
-0.114994
-0.118852
-0.126983
-0.126007
-0.131121
-0.135426
-0.133443
-0.137297
-0.1432
-0.147336
-0.15357
-0.161982
-0.163729
-0.169038
-0.174016
-0.185351
-0.189573
-0.196419
-0.184551
-0.182422
-0.18242
-0.182367
-0.178669
-0.171077
-0.172865
-0.172177
-0.170297
-0.169825
-0.171091
-0.172792
-0.170497
-0.170415
-0.169566
-0.167051
-0.158553
-0.15635
-0.154139
-0.155228
-0.158235
-0.161474
-0.171963
-0.166581
-0.165809
-0.165639
-0.164137
-0.16561
-0.161714
-0.156097
-0.155514
-0.15396
-0.148017
-0.143819
-0.142251
-0.140337
-0.128948
-0.129202
-0.125777
-0.122752
-0.128326
-0.13426
-0.132252
-0.133257
-0.139363
-0.141436
-0.144836
-0.148652
-0.149229
-0.154128
-0.155758
-0.158255
-0.152844
-0.155437
-0.159322
-0.167143
-0.17485
-0.184473
-0.185854
-0.196214
-0.204906
-0.215715
-0.210135
-0.215914
-0.218113
-0.225018
-0.219041
-0.219926
-0.206073
-0.196334
-0.18889
-0.178334
-0.176781
-0.170231
-0.1673
-0.160621
-0.163081
-0.161371
-0.15527
-0.155519
-0.14904
-0.151758
-0.149052
-0.147467
-0.150652
-0.151135
-0.155302
-0.157325
-0.159088
-0.160178
-0.161619
-0.156901
-0.166588
-0.16631
-0.165995
-0.173426
-0.174487
-0.180637
-0.175641
-0.176897
-0.18332
-0.18963
-0.199826
-0.203733
-0.206021
-0.197501
-0.194575
-0.186985
-0.185488
-0.178894
-0.174558
-0.171512
-0.167321
-0.163999
-0.162387
-0.161004
-0.161496
-0.158994
-0.159327
-0.160807
-0.165497
-0.170043
-0.175689
-0.179031
-0.181433
-0.184672
-0.186019
-0.182936
-0.180726
-0.174972
-0.179809
-0.180861
-0.183876
-0.182482
-0.179996
-0.181064
-0.180435
-0.184145
-0.188308
-0.196179
-0.19376
-0.193225
-0.194849
-0.199722
-0.204543
-0.210754
-0.218982
-0.221146
-0.214233
-0.207797
-0.205911
-0.204344
-0.204382
-0.203482
-0.209416
-0.202545
-0.203041
-0.197434
-0.200641
-0.197757
-0.186884
-0.179532
-0.174252
-0.172918
-0.172283
-0.163769
-0.159064
-0.155764
-0.15626
-0.158404
-0.164206
-0.168399
-0.180747
-0.177343
-0.181558
-0.183839
-0.178486
-0.173585
-0.174359
-0.17327
-0.173303
-0.176315
-0.179694
-0.190372
-0.185542
-0.180907
-0.170452
-0.155217
-0.145689
-0.136518
-0.133456
-0.129773
-0.131927
-0.128355
-0.126041
-0.125437
-0.129802
-0.128259
-0.133858
-0.141737
-0.149336
-0.149913
-0.154909
-0.168855
-0.165004
-0.165612
-0.165742
-0.173713
-0.162955
-0.158599
-0.154396
-0.150125
-0.148347
-0.149793
-0.151146
-0.149557
-0.154055
-0.161159
-0.15734
-0.158765
-0.158021
-0.154162
-0.160204
-0.161824
-0.165423
-0.175214
-0.163911
-0.163154
-0.162691
-0.159416
-0.157571
-0.154568
-0.152601
-0.156623
-0.158904
-0.158437
-0.162373
-0.166893
-0.165099
-0.171374
-0.167917
-0.170933
-0.169448
-0.168482
-0.165943
-0.162626
-0.157502
-0.154662
-0.149991
-0.1525
-0.153952
-0.154288
-0.153801
-0.155914
-0.155999
-0.148241
-0.143489
-0.145863
-0.144149
-0.138097
-0.139215
-0.141058
-0.144817
-0.15245
-0.156046
-0.167364
-0.180959
-0.178356
-0.181518
-0.180128
-0.184847
-0.197709
-0.20415
-0.203612
-0.213659
-0.21127
-0.212283
-0.207313
-0.209635
-0.211214
-0.200497
-0.191548
-0.183418
-0.178843
-0.178787
-0.175387
-0.173077
-0.179156
-0.170443
-0.169359
-0.17079
-0.170534
-0.174475
-0.177531
-0.186244
-0.189579
-0.197894
-0.207303
-0.216566
-0.227063
-0.232852
-0.250832
-3.90833
-3.9074
-3.90546
-3.90101
-3.89464
-3.88714
-3.87909
-3.87197
-3.86097
-3.84619
-3.83142
-3.81528
-3.79734
-3.77815
-3.75748
-3.73654
-3.71531
-3.69253
-3.66867
-3.64385
-3.61791
-3.59167
-3.56625
-3.54183
-3.51759
-3.49322
-3.46899
-3.44359
-3.41692
-3.39066
-3.3663
-3.34396
-3.32432
-3.30811
-3.29501
-3.28358
-3.27174
-3.25902
-3.24638
-3.23525
-3.2249
-3.21467
-3.20558
-3.19766
-3.19166
-3.18955
-3.19079
-3.19364
-3.19623
-3.19631
-3.19386
-3.19222
-3.19438
-3.20064
-3.20966
-3.21855
-3.22856
-3.24224
-3.254
-3.26287
-3.26699
-3.2776
-3.30674
-3.31893
-3.33019
-3.34755
-3.38196
-3.40338
-3.41742
-3.44914
-3.47819
-3.48964
-3.51805
-3.54667
-3.54135
-3.58226
-3.65262
-3.65403
-3.63766
-3.6613
-3.73257
-3.78111
-3.76683
-3.78415
-3.86375
-3.90767
-3.90029
-3.92406
-4.03046
-4.06078
-4.06169
-4.10747
-4.18203
-4.19182
-4.21667
-4.28457
-4.3628
-4.37708
-4.41786
-4.47291
-4.5596
-4.59101
-4.64605
-4.72346
-4.83575
-4.85794
-4.90372
-4.99636
-5.0597
-5.11493
-5.17192
-5.24644
-5.34122
-5.42115
-5.48693
-5.57372
-5.65691
-5.72931
-5.80037
-5.89079
-5.97111
-6.04108
-6.12909
-6.21384
-6.31598
-6.38078
-6.45374
-6.53934
-6.6304
-6.70533
-6.7934
-6.85607
-6.94019
-7.00611
-7.0752
-7.1427
-7.22551
-7.30458
-7.3974
-7.48588
-7.57135
-7.60725
-7.64592
-7.68001
-7.72531
-7.77298
-7.84055
-7.90182
-7.94768
-7.98072
-7.99997
-8.00334
-7.99085
-7.9686
-7.94294
-7.91754
-7.88055
-7.82738
-7.7245
-7.53808
-7.26571
-6.92917
-6.51136
-6.03208
-5.46472
-4.84875
-4.16672
-3.48124
-2.76164
-2.11306
-1.60024
-1.16205
-0.80762
-0.529384
-0.320275
-0.169806
-0.0703744
-0.00964922
0.0418514
0.0779023
0.0943449
0.107599
0.119989
0.123902
0.131804
0.126957
0.12858
0.121591
0.11125
0.112187
0.0969325
0.0893486
0.081279
0.0723997
0.0725494
0.0619829
0.0674336
0.0681203
0.0595454
0.0615898
0.056942
0.0547293
0.0510461
0.048734
0.0433095
0.0410559
0.0298533
0.0210236
0.013628
0.0158309
0.00168538
0.00567103
0.0139425
0.0262796
0.0296743
0.0223683
0.0309006
0.0354302
0.0358256
0.0359386
0.0367512
0.0363583
0.0307903
0.0312586
0.0384944
0.0413941
0.0376665
0.0453307
0.0489121
0.0534903
0.0463259
0.0377473
0.038897
0.030367
0.0275296
0.0310459
0.0275476
0.0331237
0.0324557
0.0301427
0.0410462
0.0462214
0.0466066
0.0509555
0.0617488
0.0702582
0.0676426
0.0842419
0.0861698
0.0816036
0.0824762
0.08286
0.0761488
0.0755013
0.073227
0.0688513
0.0629293
0.0563499
0.0457935
0.0510985
0.0551354
0.0567874
0.046627
0.0466099
0.0450403
0.0433223
0.0355643
0.0235679
0.00625339
0.00644836
7.76511e-05
-0.00365421
-0.012406
-0.00885251
-0.0132423
-0.0173837
-0.0262304
-0.0166613
-0.0110896
0.00667421
0.0225767
0.0263502
0.0364945
0.0317623
0.0346166
0.0295779
0.0375036
0.0420128
0.0429032
0.053582
0.0540165
0.0627253
0.0633673
0.0601841
0.0604611
0.0532689
0.0481181
0.0457233
0.0474623
0.0465956
0.0489853
0.0327778
0.0439775
0.0389404
0.0321829
0.0366973
0.0283286
0.0262989
0.0241679
0.0265808
0.0234644
0.012678
0.00363274
-0.00210396
-0.00417336
0.00469119
0.0194522
0.0205164
0.0279443
0.0267999
0.0303743
0.031643
0.0303333
0.0400879
0.0467132
0.052992
0.0588946
0.0556668
0.0544081
0.0479529
0.0431638
0.0322006
0.0228616
0.0203584
0.019527
0.0140507
0.000636805
0.0131341
0.0228533
0.0201504
0.0268415
0.0218062
0.0177989
0.0167934
0.0169059
0.0198252
0.0172549
0.0188068
0.010103
0.00509071
0.0101556
0.0156518
0.0124495
0.00855937
-0.000784828
-0.0140386
-0.0199292
-0.0214473
-0.0221249
-0.0130601
-0.000429661
0.00705468
0.00874257
0.00572695
0.00857
0.00242459
0.00949967
-0.00175515
0.00986568
0.00800076
0.0168597
0.029066
0.0300172
0.0277603
0.0241903
0.0372304
0.0509023
0.0549428
0.0534684
0.0458898
0.0400582
0.0290768
0.024558
0.0221553
0.0255143
0.0278961
0.0303409
0.0335509
0.0435398
0.0446888
0.0373733
0.0286091
0.0149968
0.0112421
0.00641388
0.00505266
0.0347645
0.0520789
0.068787
0.0720048
0.0760172
0.0748517
0.0822198
0.0803537
0.083424
0.0788423
0.0754958
0.0651714
0.0646206
0.0653488
0.0601084
0.0502668
0.0406362
0.042992
0.0370637
0.036166
0.0266272
0.0283121
0.0289172
0.0416277
0.0484131
0.0464492
0.0527959
0.055865
0.0538745
0.0421038
0.04222
0.0452061
0.0388828
0.0411974
0.0413005
0.0350328
0.0437847
0.0419172
0.03393
0.0353716
0.0255952
0.0358339
0.0397756
0.0433341
0.0473872
0.0461734
0.0423544
0.0465845
0.050257
0.0469117
0.0432273
0.036978
0.0231391
0.0292368
0.0178578
0.0256686
0.0239346
0.0249824
0.0320403
0.0446867
0.0524262
0.0593297
0.0523107
0.0553522
0.0467622
0.0431698
0.0468713
0.053793
0.055452
0.0488667
0.0512636
0.0649335
0.0717816
0.0690737
0.0699952
0.0661593
0.0600539
0.0490839
0.033843
0.0294949
0.0230246
0.0213861
0.0222929
0.00813048
0.00409401
0.0112221
0.00424689
-0.0178282
-0.0201264
-0.0157267
-0.00854173
-0.014665
-0.00970824
0.00109786
0.0086882
0.0182174
0.0190993
0.0205171
0.0256517
0.0200829
0.017774
0.029249
0.0245053
0.0306457
0.0350075
0.0310865
0.0242286
0.0196225
0.02207
0.0121194
0.0066463
0.00266728
-0.0152696
-0.0281785
-0.0558948
-0.0653373
-3.53306
-3.53185
-3.52873
-3.52351
-3.51732
-3.51046
-3.50164
-3.49143
-3.47832
-3.46204
-3.44533
-3.42707
-3.40628
-3.38375
-3.36032
-3.33651
-3.31128
-3.28393
-3.25579
-3.22779
-3.19911
-3.16958
-3.14035
-3.11202
-3.08442
-3.05748
-3.03173
-3.00519
-2.97603
-2.94608
-2.91883
-2.8946
-2.87399
-2.8578
-2.84517
-2.83409
-2.82215
-2.8098
-2.7985
-2.7896
-2.78223
-2.77455
-2.76682
-2.76067
-2.75805
-2.75998
-2.76507
-2.77122
-2.77608
-2.77841
-2.77894
-2.78131
-2.78735
-2.79405
-2.80524
-2.82255
-2.84293
-2.85942
-2.87395
-2.89226
-2.92261
-2.93255
-2.95626
-2.97707
-2.97983
-3.00249
-3.05561
-3.09698
-3.11441
-3.13581
-3.18263
-3.21615
-3.23191
-3.26556
-3.28431
-3.30605
-3.31995
-3.37114
-3.41229
-3.43421
-3.47841
-3.52598
-3.54754
-3.5649
-3.63569
-3.6748
-3.65961
-3.69253
-3.81466
-3.8437
-3.8292
-3.90877
-3.97962
-3.98217
-4.02362
-4.10913
-4.1772
-4.19518
-4.21129
-4.29198
-4.38761
-4.41564
-4.45844
-4.56272
-4.65872
-4.67625
-4.71336
-4.84429
-4.90212
-4.94345
-5.00287
-5.10455
-5.20382
-5.26204
-5.35448
-5.44383
-5.49969
-5.57246
-5.65889
-5.74611
-5.85697
-5.89917
-5.97447
-6.09322
-6.20432
-6.23598
-6.29777
-6.38423
-6.48782
-6.59974
-6.6937
-6.73005
-6.79216
-6.90062
-6.93596
-7.00769
-7.0925
-7.21896
-7.33575
-7.39728
-7.50758
-7.51733
-7.51783
-7.5458
-7.58853
-7.65859
-7.72536
-7.80232
-7.87423
-7.91926
-7.93012
-7.91613
-7.89498
-7.87546
-7.85499
-7.82097
-7.76386
-7.66194
-7.49995
-7.27479
-6.97658
-6.62803
-6.1909
-5.70635
-5.124
-4.501
-3.7937
-3.04615
-2.37948
-1.76596
-1.28654
-0.870811
-0.545455
-0.292908
-0.111869
0.0079084
0.0862766
0.146178
0.18134
0.200344
0.212965
0.210365
0.225541
0.247357
0.248347
0.256307
0.247875
0.245518
0.236326
0.213325
0.207072
0.201024
0.192547
0.183469
0.17168
0.175455
0.170996
0.177422
0.182803
0.17385
0.174638
0.164984
0.150591
0.124104
0.145722
0.149055
0.13868
0.0917825
0.103317
0.0793274
0.112314
0.123237
0.127028
0.128425
0.134288
0.141009
0.144257
0.14829
0.156405
0.158922
0.15416
0.14279
0.140731
0.147517
0.144171
0.141385
0.141295
0.153759
0.165978
0.161178
0.15724
0.14411
0.105852
0.134843
0.146601
0.138421
0.140502
0.12265
0.141661
0.154382
0.158888
0.160336
0.154285
0.164666
0.169999
0.161118
0.161015
0.171735
0.192191
0.19676
0.174122
0.14488
0.173572
0.181649
0.18281
0.179685
0.174708
0.169966
0.164987
0.16408
0.160744
0.157446
0.168431
0.171319
0.169579
0.155162
0.143774
0.127826
0.1162
0.102741
0.0908167
0.054766
0.0973783
0.0968179
0.0843277
0.049263
0.0716549
0.0464961
0.0788641
0.108912
0.125936
0.14107
0.132273
0.139835
0.13846
0.140861
0.151058
0.155491
0.161227
0.163367
0.17149
0.171934
0.176016
0.176584
0.172313
0.167304
0.160309
0.157912
0.157124
0.155014
0.140085
0.145432
0.134056
0.134116
0.127506
0.12487
0.126515
0.0941064
0.135308
0.143311
0.135779
0.119249
0.0767297
0.0842129
0.0607798
0.109211
0.119952
0.136737
0.135932
0.142963
0.142163
0.147903
0.157198
0.156069
0.164554
0.164482
0.160333
0.164606
0.161325
0.162275
0.154161
0.139215
0.121873
0.106381
0.112111
0.104036
0.0610044
0.119337
0.136026
0.144353
0.133836
0.129825
0.113891
0.122103
0.119873
0.131197
0.141142
0.134795
0.121658
0.0748237
0.115453
0.12199
0.125314
0.118061
0.109277
0.0998668
0.0826174
0.0558793
0.0880533
0.100187
0.117947
0.125325
0.124188
0.111758
0.0912493
0.110891
0.108395
0.117091
0.0965205
0.0735873
0.125186
0.142253
0.147989
0.136876
0.0988112
0.149428
0.167273
0.171707
0.163868
0.159785
0.151989
0.139571
0.0864542
0.124255
0.124634
0.117551
0.130952
0.144919
0.146614
0.152259
0.15825
0.147472
0.124972
0.072465
0.0944197
0.060832
0.127316
0.169227
0.184226
0.19352
0.184415
0.174611
0.180271
0.193121
0.196368
0.197167
0.186477
0.18253
0.178629
0.164287
0.149795
0.154735
0.14952
0.100446
0.13405
0.138283
0.127123
0.0847184
0.13176
0.149726
0.160304
0.175437
0.179305
0.179006
0.172502
0.170171
0.156747
0.138527
0.126378
0.139609
0.150247
0.152097
0.150082
0.149533
0.137665
0.0957165
0.133019
0.135923
0.1435
0.129799
0.146531
0.16106
0.163426
0.161263
0.158791
0.152464
0.150664
0.139426
0.138541
0.126184
0.133102
0.125441
0.130018
0.129611
0.121445
0.139262
0.158888
0.165618
0.179527
0.170955
0.167977
0.153982
0.158876
0.160032
0.159983
0.167672
0.16768
0.164476
0.171484
0.189363
0.192571
0.190358
0.180208
0.165405
0.156936
0.136286
0.0839339
0.127297
0.13365
0.130649
0.127963
0.11251
0.098339
0.0830536
0.044816
0.0863248
0.0905638
0.0880861
0.0647492
0.0573595
0.0963883
0.116564
0.130065
0.126674
0.126152
0.131292
0.129631
0.105098
0.136249
0.144888
0.144635
0.140909
0.139475
0.135885
0.123674
0.119936
0.1162
0.100337
0.0939778
0.0708412
0.0452866
-0.0295275
-3.09803
-3.097
-3.09358
-3.08732
-3.0807
-3.07394
-3.06439
-3.05378
-3.03862
-3.01967
-3.00161
-2.98144
-2.958
-2.93261
-2.9063
-2.88002
-2.85152
-2.8197
-2.78734
-2.75664
-2.72572
-2.6931
-2.66004
-2.62758
-2.59641
-2.56638
-2.5396
-2.51358
-2.4794
-2.44368
-2.41517
-2.39129
-2.37212
-2.35784
-2.34718
-2.33762
-2.32637
-2.31559
-2.30746
-2.30284
-2.29981
-2.29553
-2.29194
-2.29145
-2.29488
-2.30184
-2.31138
-2.32056
-2.32986
-2.33657
-2.34352
-2.35148
-2.36021
-2.37382
-2.38868
-2.41092
-2.43618
-2.46098
-2.4797
-2.51296
-2.5521
-2.57089
-2.57037
-2.5936
-2.63456
-2.65873
-2.67739
-2.72215
-2.77947
-2.79161
-2.80872
-2.85312
-2.90405
-2.91867
-2.95096
-2.9991
-3.01119
-3.07053
-3.15186
-3.16292
-3.16994
-3.22217
-3.29335
-3.31008
-3.35849
-3.39874
-3.38378
-3.44539
-3.54921
-3.5713
-3.5729
-3.64946
-3.72977
-3.74256
-3.78673
-3.86438
-3.91072
-3.96687
-4.03518
-4.0923
-4.14938
-4.22099
-4.30292
-4.37411
-4.42618
-4.49073
-4.55557
-4.62208
-4.72536
-4.81637
-4.86512
-4.98465
-5.07644
-5.16589
-5.25978
-5.32198
-5.39598
-5.48958
-5.56927
-5.6526
-5.75123
-5.79015
-5.88468
-6.00148
-6.06982
-6.11976
-6.20419
-6.29433
-6.41528
-6.5161
-6.57096
-6.61226
-6.7123
-6.81747
-6.83658
-6.90028
-7.021
-7.16938
-7.27491
-7.35047
-7.42924
-7.45797
-7.44774
-7.46857
-7.5209
-7.58611
-7.68608
-7.7882
-7.86252
-7.90342
-7.90999
-7.88922
-7.85589
-7.81749
-7.76776
-7.69073
-7.58119
-7.43396
-7.24208
-6.98367
-6.67351
-6.29725
-5.85453
-5.34332
-4.75739
-4.10899
-3.40474
-2.65705
-2.00306
-1.44606
-0.995172
-0.61785
-0.326514
-0.111479
0.0408698
0.139154
0.180208
0.185646
0.245832
0.276404
0.274936
0.236503
0.285641
0.300111
0.30614
0.278691
0.296848
0.280888
0.264055
0.252163
0.230007
0.225416
0.217279
0.19832
0.173366
0.156153
0.203626
0.204641
0.178692
0.206041
0.196477
0.214011
0.209202
0.162405
0.208994
0.220873
0.200093
0.136011
0.147957
0.0918955
0.116015
0.134419
0.13822
0.18152
0.182974
0.143796
0.179443
0.1924
0.202281
0.209999
0.204025
0.192166
0.153953
0.172505
0.185088
0.18007
0.143722
0.190488
0.212714
0.218938
0.197392
0.178513
0.121149
0.160556
0.147305
0.172255
0.159026
0.117221
0.161039
0.147822
0.186574
0.186969
0.148813
0.181345
0.204494
0.207449
0.154935
0.221039
0.244431
0.237138
0.210427
0.141123
0.203885
0.228036
0.22627
0.230377
0.230291
0.215528
0.169391
0.210059
0.212332
0.201729
0.188103
0.205802
0.208654
0.205968
0.189015
0.156154
0.113363
0.141936
0.127643
0.0722883
0.127175
0.1339
0.132957
0.0807433
0.11174
0.0704834
0.0899651
0.159558
0.182492
0.177848
0.178984
0.161219
0.163544
0.130981
0.16462
0.163241
0.173253
0.203756
0.213209
0.22474
0.230426
0.230916
0.220215
0.195921
0.167458
0.16556
0.179956
0.184018
0.183453
0.134504
0.173072
0.171796
0.128692
0.174907
0.170996
0.12444
0.175739
0.189782
0.175577
0.162676
0.120418
0.144948
0.106169
0.160124
0.18178
0.174753
0.169249
0.175506
0.178374
0.176007
0.164204
0.195324
0.206489
0.216778
0.222254
0.217342
0.220553
0.215137
0.204811
0.185698
0.133
0.107711
0.160247
0.16192
0.115995
0.172874
0.189337
0.170541
0.183008
0.166828
0.116362
0.155439
0.126158
0.169191
0.16802
0.179058
0.173947
0.122439
0.173323
0.181325
0.181238
0.177659
0.160952
0.137056
0.0983357
0.0886488
0.122212
0.112877
0.161896
0.17869
0.177205
0.165597
0.114699
0.140684
0.147055
0.11576
0.149004
0.114024
0.178455
0.204736
0.211569
0.200037
0.155827
0.210484
0.230225
0.22508
0.215861
0.188491
0.189704
0.174751
0.11528
0.160135
0.146995
0.132702
0.17566
0.195822
0.210147
0.21283
0.197885
0.186037
0.158079
0.10281
0.149109
0.11634
0.187814
0.222623
0.248571
0.250002
0.237828
0.177176
0.213082
0.209359
0.231668
0.23531
0.225318
0.186377
0.203942
0.207928
0.166548
0.195367
0.176192
0.112123
0.168866
0.178378
0.154414
0.0956155
0.146575
0.183696
0.193369
0.184615
0.209982
0.219509
0.210149
0.171622
0.177336
0.165534
0.11187
0.167876
0.172958
0.139176
0.186461
0.19028
0.170751
0.102338
0.142757
0.175758
0.166663
0.126243
0.185917
0.191068
0.175183
0.176253
0.193433
0.203118
0.18667
0.165063
0.124127
0.150608
0.132415
0.159965
0.159832
0.138407
0.110183
0.181177
0.208324
0.229327
0.217113
0.215542
0.195802
0.155515
0.198781
0.200056
0.18506
0.182951
0.180407
0.20384
0.218981
0.225608
0.238702
0.231063
0.208465
0.178859
0.151718
0.164193
0.116795
0.170616
0.167525
0.122684
0.125464
0.152499
0.142724
0.0865249
0.0763335
0.130093
0.149866
0.125924
0.0726007
0.0670717
0.139276
0.174515
0.169854
0.14364
0.16839
0.148111
0.12505
0.104002
0.167084
0.188368
0.19815
0.182675
0.150151
0.160782
0.163228
0.169237
0.163684
0.145479
0.10602
0.102012
0.0518791
-0.0144907
-2.61779
-2.61804
-2.61387
-2.60512
-2.59824
-2.59343
-2.5825
-2.57304
-2.55343
-2.53062
-2.51319
-2.49116
-2.46491
-2.4367
-2.40815
-2.38047
-2.34897
-2.31422
-2.28102
-2.24999
-2.21852
-2.18592
-2.15331
-2.1217
-2.09175
-2.06387
-2.03809
-2.01185
-1.98309
-1.95453
-1.92965
-1.90909
-1.89297
-1.88165
-1.87331
-1.86612
-1.85882
-1.85207
-1.84895
-1.84909
-1.84928
-1.85035
-1.85187
-1.85695
-1.86482
-1.87682
-1.88948
-1.90228
-1.91334
-1.92643
-1.93692
-1.94942
-1.96518
-1.97975
-1.99836
-2.02311
-2.05459
-2.08518
-2.11288
-2.141
-2.16725
-2.19769
-2.21821
-2.24542
-2.27548
-2.31965
-2.34787
-2.38876
-2.42767
-2.4618
-2.4892
-2.53864
-2.58459
-2.6125
-2.66677
-2.71746
-2.72523
-2.76949
-2.81401
-2.868
-2.87982
-2.93538
-2.9798
-3.0231
-3.08698
-3.13835
-3.12621
-3.17592
-3.2652
-3.31589
-3.32624
-3.40982
-3.49037
-3.50856
-3.57128
-3.64454
-3.69739
-3.76425
-3.85736
-3.89905
-3.96515
-4.03287
-4.12761
-4.19315
-4.24632
-4.30992
-4.39453
-4.44671
-4.56337
-4.67176
-4.72351
-4.83912
-4.94619
-5.03256
-5.09227
-5.177
-5.27233
-5.35933
-5.39302
-5.50091
-5.55564
-5.6761
-5.78614
-5.83417
-5.89759
-5.99087
-6.11005
-6.20728
-6.28896
-6.32016
-6.38919
-6.49193
-6.60978
-6.63511
-6.73446
-6.81762
-6.91069
-6.99869
-7.10151
-7.23589
-7.26427
-7.32872
-7.3797
-7.42416
-7.48349
-7.58074
-7.68637
-7.76049
-7.80385
-7.82584
-7.82508
-7.7992
-7.74951
-7.6818
-7.60128
-7.50122
-7.36727
-7.18506
-6.94933
-6.65667
-6.32013
-5.92074
-5.45919
-4.92938
-4.32602
-3.66994
-2.93191
-2.24074
-1.6565
-1.14211
-0.741016
-0.399877
-0.147392
0.0431546
0.16532
0.213214
0.192422
0.196424
0.272209
0.286492
0.295446
0.259756
0.271162
0.313144
0.310628
0.251124
0.282576
0.291156
0.265776
0.211733
0.182898
0.222511
0.217692
0.166096
0.114747
0.108471
0.17474
0.193096
0.140328
0.19525
0.190107
0.221666
0.221418
0.231349
0.233572
0.229017
0.243385
0.235414
0.186632
0.208748
0.144908
0.135799
0.139573
0.156225
0.165625
0.111861
0.163636
0.156315
0.192986
0.205244
0.210591
0.187831
0.144864
0.168171
0.161923
0.160457
0.121333
0.175917
0.206268
0.198376
0.161644
0.194721
0.204822
0.185377
0.117213
0.149091
0.165669
0.135754
0.173353
0.124782
0.179572
0.190013
0.14442
0.157661
0.198655
0.170098
0.127942
0.168865
0.229621
0.241528
0.181677
0.164385
0.212633
0.213399
0.187204
0.220981
0.214011
0.210256
0.158603
0.195716
0.178753
0.147435
0.148579
0.205447
0.209803
0.174104
0.166763
0.114314
0.0875572
0.138677
0.120792
0.171715
0.170353
0.112744
0.14941
0.178372
0.185292
0.174812
0.130278
0.165765
0.156613
0.16389
0.116753
0.101529
0.144903
0.112268
0.164643
0.126261
0.139247
0.187359
0.188311
0.185051
0.205965
0.213512
0.206298
0.184443
0.111457
0.118748
0.165723
0.170323
0.135079
0.0822474
0.118228
0.153321
0.11448
0.142141
0.186434
0.204976
0.206128
0.194518
0.149314
0.18725
0.178608
0.175032
0.196245
0.192426
0.165872
0.169553
0.122231
0.164738
0.151303
0.158853
0.119912
0.167126
0.199342
0.202524
0.181699
0.199025
0.189929
0.206088
0.204721
0.176413
0.166044
0.128699
0.160289
0.181448
0.217731
0.212541
0.194337
0.144244
0.176992
0.178405
0.133037
0.173684
0.142424
0.17286
0.155767
0.193835
0.205654
0.219485
0.198574
0.152037
0.173929
0.159758
0.133064
0.127137
0.0796478
0.130207
0.164264
0.130175
0.180558
0.185975
0.189364
0.177358
0.157305
0.166616
0.139637
0.0739165
0.129956
0.197052
0.21567
0.222028
0.222158
0.218027
0.242172
0.247865
0.245147
0.228826
0.176407
0.132951
0.158962
0.205049
0.225965
0.196688
0.129212
0.151087
0.163483
0.184563
0.18155
0.195083
0.208539
0.200684
0.171858
0.20241
0.197274
0.210251
0.184973
0.232187
0.250767
0.262203
0.233535
0.171261
0.193207
0.164556
0.227043
0.223765
0.180008
0.157736
0.207995
0.208589
0.206341
0.204563
0.207748
0.214517
0.17415
0.187372
0.160476
0.182044
0.135561
0.182537
0.171071
0.158221
0.217844
0.234069
0.215243
0.135455
0.155361
0.11956
0.0945423
0.141806
0.163765
0.104399
0.164636
0.193039
0.195539
0.179115
0.134736
0.146893
0.178713
0.138491
0.178477
0.198323
0.145515
0.139815
0.192096
0.185673
0.185283
0.123286
0.0790267
0.121211
0.0946916
0.135269
0.130211
0.107394
0.101824
0.160778
0.20372
0.209008
0.220472
0.210251
0.199497
0.152616
0.19397
0.191335
0.130638
0.159524
0.131231
0.169476
0.170209
0.222793
0.233409
0.23217
0.209533
0.140818
0.126816
0.199991
0.217302
0.210977
0.187486
0.104453
0.0926124
0.134507
0.117305
0.0970502
0.157003
0.171268
0.144602
0.127915
0.128669
0.159826
0.12189
0.15153
0.179311
0.149308
0.16333
0.124675
0.115259
0.176507
0.183851
0.196698
0.178518
0.151073
0.132549
0.154023
0.118113
0.148616
0.146153
0.123973
0.0650097
0.0993243
0.0637379
0.106056
-2.14219
-2.14154
-2.1382
-2.1315
-2.12485
-2.11793
-2.10707
-2.09423
-2.07689
-2.05579
-2.03679
-2.01555
-1.99032
-1.96236
-1.93367
-1.90587
-1.876
-1.84351
-1.81231
-1.78269
-1.75354
-1.72424
-1.69587
-1.6668
-1.63945
-1.61369
-1.59085
-1.56767
-1.54328
-1.52028
-1.49853
-1.48316
-1.47158
-1.46238
-1.45775
-1.45427
-1.44991
-1.44911
-1.44954
-1.45207
-1.46034
-1.46535
-1.47179
-1.47869
-1.49299
-1.50706
-1.52714
-1.54201
-1.55499
-1.56747
-1.58686
-1.60565
-1.62197
-1.64102
-1.66218
-1.6899
-1.72526
-1.76185
-1.79417
-1.82748
-1.8526
-1.88523
-1.91319
-1.94756
-1.98848
-2.02312
-2.05384
-2.10194
-2.13928
-2.17812
-2.21166