/*--------------------------------*- C++ -*----------------------------------*\
| =========                 |                                                 |
| \\      /  F ield         | OpenFOAM: The Open Source CFD Toolbox           |
|  \\    /   O peration     | Version:  v2012                                 |
|   \\  /    A nd           | Website:  www.openfoam.com                      |
|    \\/     M anipulation  |                                                 |
\*---------------------------------------------------------------------------*/
FoamFile
{
    version     2.0;
    format      ascii;
    class       volVectorField;
    location    "500";
    object      U;
}
// * * * * * * * * * * * * * * * * * * * * * * * * * * * * * * * * * * * * * //

dimensions      [0 1 -1 0 0 0 0];


internalField   nonuniform List<vector> 
65536
(
(0.131212 -0.126556 0)
(0.388097 -0.111333 0)
(0.615498 -0.0994541 0)
(0.821312 -0.115978 0)
(1.07174 -0.140853 0)
(1.33423 -0.162577 0)
(1.65341 -0.159132 0)
(1.91206 -0.122755 0)
(2.11617 -0.110541 0)
(2.3691 -0.124135 0)
(2.63395 -0.134124 0)
(2.91497 -0.143821 0)
(3.21537 -0.146283 0)
(3.50731 -0.145284 0)
(3.80368 -0.15538 0)
(4.1353 -0.164418 0)
(4.46112 -0.165267 0)
(4.78195 -0.162939 0)
(5.09945 -0.16317 0)
(5.42488 -0.17015 0)
(5.76954 -0.177679 0)
(6.13266 -0.185617 0)
(6.50907 -0.1917 0)
(6.88557 -0.188792 0)
(7.25149 -0.181158 0)
(7.62279 -0.171902 0)
(7.99292 -0.167382 0)
(8.36972 -0.189397 0)
(8.80464 -0.223529 0)
(9.27566 -0.238855 0)
(9.75467 -0.244689 0)
(10.2419 -0.252689 0)
(10.7445 -0.254505 0)
(11.2412 -0.255356 0)
(11.7419 -0.251176 0)
(12.2113 -0.232499 0)
(12.6523 -0.209409 0)
(13.0784 -0.206668 0)
(13.5341 -0.228591 0)
(14.0182 -0.238745 0)
(14.4844 -0.246963 0)
(14.9863 -0.265784 0)
(15.5067 -0.262655 0)
(16.0067 -0.248987 0)
(16.5183 -0.252185 0)
(17.0552 -0.253804 0)
(17.568 -0.246521 0)
(18.0655 -0.23418 0)
(18.527 -0.209661 0)
(18.9515 -0.194383 0)
(19.3961 -0.208802 0)
(19.8892 -0.251835 0)
(20.4356 -0.295269 0)
(20.9819 -0.286165 0)
(21.4555 -0.238305 0)
(21.9058 -0.218986 0)
(22.3873 -0.226612 0)
(22.8439 -0.223992 0)
(23.2629 -0.20106 0)
(23.6474 -0.168923 0)
(24.0159 -0.169465 0)
(24.4368 -0.215558 0)
(24.9052 -0.258698 0)
(25.3622 -0.241554 0)
(25.7372 -0.165796 0)
(26.0264 -0.156097 0)
(26.4342 -0.26152 0)
(26.9701 -0.240794 0)
(27.2035 -0.020796 0)
(27.1683 -0.0316065 0)
(27.5801 -0.311369 0)
(28.1816 -0.157456 0)
(27.9476 0.295913 0)
(27.6775 0.0378962 0)
(28.5917 -0.551263 0)
(29.3163 -0.292334 0)
(28.6925 0.292277 0)
(28.4064 0.175784 0)
(28.9969 -0.24871 0)
(29.258 -0.369861 0)
(29.3217 0.0223963 0)
(29.0946 0.549863 0)
(28.5281 0.0760962 0)
(29.2054 -0.704407 0)
(30.0061 0.0982788 0)
(28.5149 0.901023 0)
(27.6865 -0.289382 0)
(29.4913 -0.796282 0)
(29.534 0.623742 0)
(27.4181 0.673103 0)
(27.8531 -0.554277 0)
(29.053 -0.113192 0)
(27.714 0.644842 0)
(26.9137 0.070149 0)
(27.711 -0.171608 0)
(27.376 0.282617 0)
(26.4047 0.376462 0)
(26.144 0.152734 0)
(26.0766 -0.184801 0)
(26.1666 -0.133883 0)
(25.7619 0.643114 0)
(24.5226 0.699125 0)
(24.4135 -0.436665 0)
(25.4696 -0.46277 0)
(24.62 0.907298 0)
(22.5902 0.834612 0)
(22.8485 -0.637386 0)
(24.1464 -0.475127 0)
(23.0799 0.909083 0)
(21.3912 0.628147 0)
(21.8681 -0.580268 0)
(22.5322 -0.176986 0)
(21.3379 0.800988 0)
(20.4286 0.294202 0)
(20.991 -0.455902 0)
(21.0144 0.11551 0)
(19.8492 0.68428 0)
(19.4377 0.0165247 0)
(20.1018 -0.527955 0)
(20.1396 0.11562 0)
(19.166 0.68185 0)
(18.7248 0.0996738 0)
(19.1875 -0.503926 0)
(19.3065 -0.0530981 0)
(18.5826 0.594463 0)
(18.0248 0.310611 0)
(18.206 -0.383373 0)
(18.5039 -0.403284 0)
(18.2978 0.157219 0)
(17.9375 0.358089 0)
(18.0208 -0.00564938 0)
(18.2885 -0.276068 0)
(18.1829 -0.0642184 0)
(17.6611 0.264154 0)
(17.3686 0.232792 0)
(17.705 -0.110023 0)
(18.4909 -0.451385 0)
(19.2992 -0.495591 0)
(19.6222 -0.129759 0)
(19.1735 0.414049 0)
(18.2305 0.680524 0)
(17.5173 0.450572 0)
(17.586 -0.0905555 0)
(18.4251 -0.630541 0)
(19.6986 -0.93494 0)
(20.93 -0.879324 0)
(21.7566 -0.519225 0)
(22.0406 -0.05347 0)
(21.8278 0.330916 0)
(21.2623 0.504022 0)
(20.718 0.350312 0)
(20.6481 -0.0896434 0)
(21.1705 -0.565458 0)
(22.0322 -0.774334 0)
(22.8464 -0.619327 0)
(23.451 -0.284115 0)
(23.8415 0.0215473 0)
(23.9024 0.193272 0)
(23.6142 0.151162 0)
(23.3077 -0.0518132 0)
(23.2512 -0.146124 0)
(23.2932 0.0171183 0)
(23.1203 0.229881 0)
(22.734 0.245832 0)
(22.3413 0.160124 0)
(21.9128 0.249949 0)
(21.109 0.528727 0)
(19.8434 0.775354 0)
(18.2782 0.868406 0)
(16.6594 0.832121 0)
(15.1629 0.732528 0)
(13.8598 0.633364 0)
(12.717 0.554879 0)
(11.7078 0.484601 0)
(10.8264 0.428397 0)
(10.0361 0.3719 0)
(9.3715 0.306678 0)
(8.8193 0.270671 0)
(8.299 0.248506 0)
(7.83206 0.22744 0)
(7.38896 0.216351 0)
(6.98672 0.190851 0)
(6.63679 0.167255 0)
(6.30589 0.164493 0)
(5.98708 0.160852 0)
(5.68957 0.140669 0)
(5.43072 0.119907 0)
(5.1901 0.109245 0)
(4.98591 0.101391 0)
(4.79314 0.0931621 0)
(4.6151 0.0888747 0)
(4.44137 0.0793472 0)
(4.28767 0.0714159 0)
(4.13639 0.0701623 0)
(4.00043 0.0746594 0)
(3.84252 0.0845017 0)
(3.68699 0.0852501 0)
(3.5294 0.074406 0)
(3.38856 0.0626301 0)
(3.26789 0.0643241 0)
(3.13446 0.0523103 0)
(3.04655 0.0410479 0)
(2.94287 0.0498509 0)
(2.84323 0.0592601 0)
(2.71947 0.0641029 0)
(2.60979 0.0612349 0)
(2.50246 0.0502659 0)
(2.41347 0.0281289 0)
(2.35871 0.0292976 0)
(2.27453 0.0438938 0)
(2.1984 0.0422164 0)
(2.12623 0.0258413 0)
(2.091 0.0223817 0)
(2.01962 0.0210529 0)
(1.98379 0.016851 0)
(1.9414 0.025425 0)
(1.88867 0.0314515 0)
(1.83674 0.039726 0)
(1.769 0.033174 0)
(1.72055 0.0198843 0)
(1.67238 0.0199048 0)
(1.61021 0.0349642 0)
(1.52494 0.0324255 0)
(1.49017 0.0133586 0)
(1.46529 0.00801427 0)
(1.45811 0.00679538 0)
(1.43033 0.00506284 0)
(1.40491 0.00439322 0)
(1.38911 0.0117657 0)
(1.37306 0.015028 0)
(1.36053 0.0167081 0)
(1.30694 0.0224284 0)
(1.26678 0.00850929 0)
(1.26319 -0.00650533 0)
(1.25572 0.00818215 0)
(1.21504 0.027657 0)
(1.16551 0.0320726 0)
(1.10895 0.0322344 0)
(1.04529 0.0207101 0)
(1.02176 0.0102737 0)
(0.994392 0.00362996 0)
(0.977598 -0.00399587 0)
(0.987928 0.000270382 0)
(0.977728 0.00795535 0)
(0.958615 0.0104132 0)
(0.925678 0.0118124 0)
(0.885157 0.0200846 0)
(0.859647 0.0259479 0)
(0.836725 0.0204178 0)
(0.813173 0.00593808 0)
(0.800368 0.0032248 0)
(0.770068 0.015947 0)
(0.741082 0.0257775 0)
(0.702841 0.0232526 0)
(0.663646 0.00666076 0)
(0.651312 -0.00331225 0)
(0.656254 0.00880894 0)
(0.631644 0.0147348 0)
(0.618612 0.0147746 0)
(0.588198 0.0152701 0)
(0.556821 0.00184945 0)
(0.559007 0.00666583 0)
(0.532843 0.0195854 0)
(0.504749 0.0146254 0)
(0.471478 0.011122 0)
(0.440679 0.0190994 0)
(0.401669 0.0161127 0)
(0.382995 0.00614645 0)
(0.361414 -0.00837062 0)
(0.404511 -0.0137453 0)
(0.43266 -0.00578926 0)
(0.452055 -0.0169405 0)
(0.483525 -0.0147977 0)
(0.47729 0.00674995 0)
(0.461382 0.0114406 0)
(0.435818 0.00677057 0)
(0.434573 0.00731872 0)
(0.418312 0.00304765 0)
(0.41607 -0.00165317 0)
(0.39903 0.00499439 0)
(0.393281 0.0136403 0)
(0.377466 0.0129056 0)
(0.358322 0.0159965 0)
(0.315362 0.021611 0)
(0.289328 0.0126836 0)
(0.277308 -0.00160553 0)
(0.276038 -0.00914056 0)
(0.277656 0.00293096 0)
(0.267664 0.0159994 0)
(0.262182 0.0134574 0)
(0.2316 0.0106395 0)
(0.220854 0.00581608 0)
(0.226017 -0.00928801 0)
(0.254408 -0.0153041 0)
(0.259307 -0.00499878 0)
(0.27196 0.00560321 0)
(0.250012 0.0083954 0)
(0.234773 0.00871844 0)
(0.209656 0.00463151 0)
(0.205695 -3.49609e-05 0)
(0.192263 0.00603422 0)
(0.191571 0.00268383 0)
(0.189893 -0.000863689 0)
(0.191113 0.00420389 0)
(0.183936 -0.00441329 0)
(0.21847 -0.0218946 0)
(0.248546 -0.00929468 0)
(0.240003 0.00640292 0)
(0.227201 0.0103264 0)
(0.195333 0.0149054 0)
(0.166753 0.00808787 0)
(0.159407 -0.00992352 0)
(0.192618 -0.00595507 0)
(0.161982 0.0073923 0)
(0.164415 0.0100202 0)
(0.145216 0.00495586 0)
(0.140756 0.00286149 0)
(0.113864 0.00696992 0)
(0.112486 0.00262992 0)
(0.137275 0.00503666 0)
(0.129508 0.00449126 0)
(0.124832 -0.00283866 0)
(0.120491 -0.00284286 0)
(0.109268 -0.000576018 0)
(0.132186 -0.00579723 0)
(0.137167 -0.00701684 0)
(0.137881 -0.00793029 0)
(0.147337 -0.0130981 0)
(0.168383 -0.0180746 0)
(0.207512 -0.0238843 0)
(0.267677 -0.0194138 0)
(0.303664 0.00122454 0)
(0.288389 0.00521344 0)
(0.290627 0.00344837 0)
(0.26172 0.012234 0)
(0.234455 0.0110322 0)
(0.207301 0.0153228 0)
(0.174667 0.0178378 0)
(0.162003 0.0111337 0)
(0.132223 0.00700222 0)
(0.141518 0.00087976 0)
(0.133408 -0.0101198 0)
(0.152176 -0.0170093 0)
(0.169955 -0.00570392 0)
(0.160457 0.00381311 0)
(0.176865 0.0121397 0)
(0.161898 0.0125982 0)
(0.13842 0.00416772 0)
(0.117224 -0.00347809 0)
(0.132592 -0.0153503 0)
(0.161838 -0.0109163 0)
(0.154293 0.00367673 0)
(0.146813 0.0137656 0)
(0.11693 0.0091995 0)
(0.106619 0.00057116 0)
(0.106482 -0.00217015 0)
(0.100136 -0.0101062 0)
(0.118693 -0.01296 0)
(0.140176 -0.00205565 0)
(0.141496 0.00292446 0)
(0.1551 0.00303101 0)
(0.150659 0.00531215 0)
(0.132461 0.00779005 0)
(0.120354 0.00754718 0)
(0.107258 0.00111309 0)
(0.107095 0.00822133 0)
(0.0814524 0.008899 0)
(0.0859249 -0.00266874 0)
(0.0824349 -0.00877134 0)
(0.0959715 -0.0128698 0)
(0.109487 -0.00205169 0)
(0.0989039 0.00302772 0)
(0.124534 0.00464581 0)
(0.108719 -0.000249301 0)
(0.122253 -0.00665245 0)
(0.124113 -0.00516882 0)
(0.138795 -0.00368636 0)
(0.13624 -0.00573139 0)
(0.146811 -0.0158093 0)
(0.178637 -0.00145533 0)
(0.145384 0.0222416 0)
(0.105189 0.0237445 0)
(0.0789909 0.0166668 0)
(0.0581622 0.0135701 0)
(0.0249131 0.00323856 0)
(0.0228811 -0.00211431 0)
(0.00487234 0.00361326 0)
(0.00502879 0.0124274 0)
(-0.0269331 0.00657888 0)
(-0.0155256 -0.0111696 0)
(-0.00375247 -0.0147286 0)
(0.022682 -0.0103509 0)
(0.0611948 -0.0019313 0)
(0.0557311 -0.00443236 0)
(0.0700877 -0.000651151 0)
(0.0537893 0.00431404 0)
(0.0425732 0.00581149 0)
(0.0230539 0.0125021 0)
(0.00380851 0.0101645 0)
(-0.00211712 -0.00125846 0)
(0.004049 -0.00697532 0)
(0.0114897 -0.00304799 0)
(0.0134156 -0.00901353 0)
(0.0477923 -0.0160637 0)
(0.057557 -0.00588255 0)
(0.0428839 0.0109895 0)
(0.00432298 0.0144669 0)
(-0.00680633 0.0062082 0)
(-0.00505095 -0.00372886 0)
(0.030317 -0.0129886 0)
(0.0692379 -0.00572652 0)
(0.067833 -0.00113124 0)
(0.0720423 -0.00567262 0)
(0.0703621 -0.00326999 0)
(0.0603652 0.00880753 0)
(0.0325874 0.0153802 0)
(0.0212659 -0.00467537 0)
(0.0567908 -0.0209212 0)
(0.0842679 -0.011556 0)
(0.085644 0.0062698 0)
(0.0624721 0.0157015 0)
(0.0431186 0.00842402 0)
(0.0290553 -0.000614356 0)
(0.0305197 0.00269687 0)
(0.0109436 0.00332607 0)
(0.00548632 0.00469494 0)
(-0.0119297 0.0170806 0)
(-0.0443366 0.0203813 0)
(-0.0572995 0.00889303 0)
(-0.0674529 0.0036203 0)
(-0.0732712 0.00752074 0)
(-0.081006 0.00258149 0)
(-0.0862817 -0.00556686 0)
(-0.0748298 0.00132564 0)
(-0.102828 -0.00462432 0)
(-0.0591735 -0.0197405 0)
(-0.0344793 -0.00974036 0)
(-0.0284496 -0.0043342 0)
(0.00676963 -0.00462887 0)
(0.0118062 -0.00675139 0)
(0.0365614 -0.000721304 0)
(0.0116999 -0.000813709 0)
(0.0245318 -0.0055757 0)
(0.0133438 -0.000146909 0)
(0.0196642 -0.00215178 0)
(0.0298608 -0.00961921 0)
(0.0591156 -0.0187909 0)
(0.0888179 -0.0149703 0)
(0.115134 -0.00444606 0)
(0.120354 -0.00385388 0)
(0.136927 -0.00864488 0)
(0.139328 -0.0102507 0)
(0.152135 -0.00958036 0)
(0.155187 0.00200667 0)
(0.149933 0.00794807 0)
(0.150365 0.011802 0)
(0.119705 0.022463 0)
(0.0842939 0.0298412 0)
(0.0283621 0.0159531 0)
(0.011366 0.00301677 0)
(0.00249071 0.00300793 0)
(-0.00363911 0.00633427 0)
(-0.0254944 0.0158209 0)
(-0.0421287 0.00980697 0)
(-0.045908 0.00306034 0)
(-0.0619171 0.00107724 0)
(-0.0438734 -0.00707972 0)
(-0.0406751 -0.00803052 0)
(-0.0294485 -0.00729486 0)
(-0.0215644 -0.0164234 0)
(0.0176088 -0.0146105 0)
(0.0419302 0.00231589 0)
(0.0253024 0.00302962 0)
(0.0213059 0.0139019 0)
(-0.0139394 0.0174643 0)
(-0.0316165 0.00874285 0)
(-0.0602293 0.00470869 0)
(-0.064521 0.00161957 0)
(-0.090325 -1.35253e-06 0)
(-0.0759949 -0.00953852 0)
(-0.0476543 0.00359297 0)
(-0.0725494 0.00618976 0)
(-0.0279075 -0.00740216 0)
(-0.00693132 -0.00647562 0)
(6.38971e-05 -0.0142884 0)
(0.0254751 -0.0085713 0)
(0.00194718 0.0018388 0)
(-0.00280347 0.00176603 0)
(-0.0189233 -0.000505813 0)
(-0.0147712 0.00455738 0)
(-0.0385302 -0.00288205 0)
(0.00774723 -0.0130396 0)
(0.0265725 0.0137389 0)
(-0.0186387 0.0253676 0)
(-0.0524764 0.0173479 0)
(-0.0757237 0.00614254 0)
(-0.0779853 -0.00833469 0)
(-0.0520419 -0.0190908 0)
(-0.0304894 -0.0155151 0)
(-0.020017 -0.00851575 0)
(-0.00572015 -0.000548044 0)
(-0.0127893 0.0112914 0)
(-0.0146815 0.0212062 0)
(-0.0506756 0.0211755 0)
(-0.0848274 0.0129647 0)
(-0.104594 0.0107158 0)
(-0.144872 0.000952103 0)
(-0.110615 -0.0209961 0)
(-0.0750728 -0.0162737 0)
(-0.0748782 -0.00820968 0)
(-0.0608882 -0.00638627 0)
(-0.054946 -0.0252589 0)
(0.121372 -0.383518 0)
(0.359651 -0.3665 0)
(0.624258 -0.326986 0)
(0.850472 -0.333682 0)
(1.09682 -0.365811 0)
(1.3207 -0.41311 0)
(1.58461 -0.412873 0)
(1.83669 -0.333773 0)
(2.05693 -0.34033 0)
(2.3339 -0.387704 0)
(2.60496 -0.405807 0)
(2.86661 -0.431775 0)
(3.13886 -0.440157 0)
(3.42126 -0.43704 0)
(3.70966 -0.466615 0)
(4.02273 -0.487094 0)
(4.32328 -0.475224 0)
(4.62916 -0.469231 0)
(4.94867 -0.473429 0)
(5.26892 -0.493747 0)
(5.61 -0.523851 0)
(5.97881 -0.547871 0)
(6.35998 -0.555074 0)
(6.74172 -0.547632 0)
(7.12266 -0.54998 0)
(7.51994 -0.563739 0)
(7.93096 -0.573735 0)
(8.3293 -0.616982 0)
(8.73911 -0.67734 0)
(9.16533 -0.706447 0)
(9.61152 -0.716715 0)
(10.0565 -0.732444 0)
(10.5338 -0.739895 0)
(11.0189 -0.737033 0)
(11.5022 -0.713539 0)
(11.9669 -0.672064 0)
(12.4342 -0.651518 0)
(12.9228 -0.668621 0)
(13.413 -0.704764 0)
(13.9037 -0.70475 0)
(14.3828 -0.71423 0)
(14.8637 -0.749437 0)
(15.346 -0.750468 0)
(15.8557 -0.755054 0)
(16.3934 -0.788827 0)
(16.9356 -0.788307 0)
(17.4448 -0.756101 0)
(17.93 -0.717089 0)
(18.3903 -0.66844 0)
(18.8575 -0.666865 0)
(19.3617 -0.72147 0)
(19.8793 -0.780781 0)
(20.3573 -0.791055 0)
(20.7988 -0.727068 0)
(21.2838 -0.678998 0)
(21.8335 -0.706351 0)
(22.3299 -0.705045 0)
(22.7174 -0.645072 0)
(23.1081 -0.595337 0)
(23.5523 -0.576884 0)
(24.017 -0.61254 0)
(24.4761 -0.666391 0)
(24.8624 -0.659588 0)
(25.1781 -0.58277 0)
(25.5596 -0.49043 0)
(26.0516 -0.532369 0)
(26.4817 -0.675738 0)
(26.7121 -0.521635 0)
(26.8996 -0.168494 0)
(27.2664 -0.33791 0)
(27.7034 -0.696981 0)
(27.8401 -0.206416 0)
(27.8243 0.219486 0)
(28.3644 -0.680498 0)
(29.0133 -1.08714 0)
(28.5794 0.195578 0)
(28.0212 0.627056 0)
(28.9115 -0.476171 0)
(29.6257 -0.599271 0)
(28.8232 0.0506378 0)
(28.5578 0.146621 0)
(29.3278 0.252898 0)
(29.4312 -0.182971 0)
(29.2051 -0.775507 0)
(29.08 0.594442 0)
(28.5221 1.43041 0)
(28.6126 -0.692557 0)
(29.2689 -1.05611 0)
(28.6175 1.45412 0)
(27.7832 1.01641 0)
(28.4942 -1.08747 0)
(28.5299 0.251284 0)
(27.3271 1.50139 0)
(27.3675 -0.066964 0)
(27.8057 -0.28833 0)
(27.0136 1.02477 0)
(26.4254 0.861834 0)
(26.4682 0.176139 0)
(26.0726 0.163878 0)
(25.5775 0.447685 0)
(25.2993 1.00654 0)
(25.1762 0.65295 0)
(25.2309 -0.515073 0)
(24.73 0.251189 0)
(23.6226 1.97553 0)
(23.4761 0.942104 0)
(23.9276 -0.927636 0)
(23.2639 0.235258 0)
(22.2233 1.85239 0)
(22.4295 0.584521 0)
(22.5451 -0.564377 0)
(21.5301 0.702869 0)
(20.9594 1.30948 0)
(21.4109 0.0502785 0)
(21.1123 -0.131571 0)
(20.0255 1.02493 0)
(19.7892 0.898393 0)
(20.2308 -0.272862 0)
(19.9203 -0.176569 0)
(19.1483 0.82066 0)
(19.1005 0.737963 0)
(19.443 -0.122705 0)
(19.1156 -0.0802324 0)
(18.4217 0.658228 0)
(18.3389 0.690257 0)
(18.6528 0.0665693 0)
(18.4846 -0.0979193 0)
(17.8607 0.311142 0)
(17.628 0.411158 0)
(18.0374 -0.0790041 0)
(18.4547 -0.345365 0)
(18.2576 0.115161 0)
(17.6543 0.694245 0)
(17.279 0.55437 0)
(17.5117 -0.273348 0)
(18.2146 -1.01414 0)
(18.9914 -1.1475 0)
(19.397 -0.639311 0)
(19.1603 0.256199 0)
(18.5129 0.980063 0)
(18.0193 0.978562 0)
(18.0664 0.198082 0)
(18.6164 -0.818626 0)
(19.3726 -1.49038 0)
(20.0847 -1.58227 0)
(20.5879 -1.18894 0)
(20.8451 -0.598379 0)
(20.8897 -0.0203123 0)
(20.7527 0.447958 0)
(20.5835 0.607473 0)
(20.6586 0.266229 0)
(21.0981 -0.36289 0)
(21.7123 -0.823042 0)
(22.2086 -0.907045 0)
(22.4714 -0.802324 0)
(22.6506 -0.712419 0)
(22.8333 -0.470067 0)
(22.927 0.042071 0)
(22.9188 0.453934 0)
(22.9007 0.425688 0)
(22.8781 0.173246 0)
(22.7406 0.127144 0)
(22.4158 0.346917 0)
(21.9763 0.551011 0)
(21.4576 0.680428 0)
(20.7988 1.00267 0)
(19.8367 1.5589 0)
(18.6082 2.06968 0)
(17.208 2.32406 0)
(15.8055 2.28619 0)
(14.5064 2.06568 0)
(13.3491 1.80634 0)
(12.3247 1.59016 0)
(11.4093 1.39811 0)
(10.6012 1.23707 0)
(9.88003 1.07836 0)
(9.2561 0.907406 0)
(8.70959 0.800008 0)
(8.2201 0.738009 0)
(7.75197 0.682116 0)
(7.32171 0.629229 0)
(6.95455 0.561354 0)
(6.59354 0.513869 0)
(6.25581 0.485283 0)
(5.96223 0.455617 0)
(5.69041 0.416254 0)
(5.42791 0.380073 0)
(5.16716 0.336254 0)
(4.97212 0.296399 0)
(4.77914 0.279149 0)
(4.60166 0.264425 0)
(4.43533 0.248768 0)
(4.25514 0.23419 0)
(4.09515 0.217342 0)
(3.95815 0.219921 0)
(3.81595 0.229317 0)
(3.69892 0.227799 0)
(3.56121 0.224534 0)
(3.40689 0.199447 0)
(3.28506 0.19027 0)
(3.15579 0.17005 0)
(3.03651 0.151151 0)
(2.92118 0.154756 0)
(2.82916 0.165501 0)
(2.72102 0.170947 0)
(2.63796 0.156837 0)
(2.55066 0.147861 0)
(2.44651 0.11628 0)
(2.35062 0.11102 0)
(2.26607 0.117171 0)
(2.21653 0.106938 0)
(2.15384 0.0817143 0)
(2.10409 0.0847487 0)
(2.01913 0.0859706 0)
(1.96198 0.0614199 0)
(1.92779 0.0686113 0)
(1.87458 0.0725367 0)
(1.83965 0.07875 0)
(1.81146 0.0816893 0)
(1.7652 0.0753382 0)
(1.69996 0.0887818 0)
(1.61587 0.111494 0)
(1.53906 0.0862368 0)
(1.50167 0.0454734 0)
(1.47571 0.0224973 0)
(1.47453 0.0275897 0)
(1.42613 0.0464903 0)
(1.37179 0.0357893 0)
(1.35247 0.0185029 0)
(1.3662 0.0120721 0)
(1.36837 0.0478147 0)
(1.30953 0.0700187 0)
(1.26972 0.0339296 0)
(1.24969 0.016162 0)
(1.20779 0.0391669 0)
(1.18519 0.0613375 0)
(1.16502 0.0733254 0)
(1.12193 0.087567 0)
(1.05584 0.066028 0)
(1.03172 0.0398025 0)
(0.989595 0.0397944 0)
(0.943156 0.00971827 0)
(0.953857 -0.00135306 0)
(0.946601 0.0199049 0)
(0.925717 0.0410143 0)
(0.865362 0.0607402 0)
(0.8153 0.0449975 0)
(0.824609 0.0218368 0)
(0.842663 0.0257243 0)
(0.833828 0.0293296 0)
(0.79055 0.0392823 0)
(0.746257 0.0430827 0)
(0.742009 0.0415082 0)
(0.734774 0.0541685 0)
(0.694074 0.0454874 0)
(0.652761 0.0114103 0)
(0.651257 0.0121945 0)
(0.639496 0.0244709 0)
(0.635742 0.0302612 0)
(0.613479 0.0481947 0)
(0.567824 0.0292054 0)
(0.552656 0.0194259 0)
(0.546713 0.0364471 0)
(0.538647 0.0487136 0)
(0.486244 0.055343 0)
(0.44745 0.0531569 0)
(0.424807 0.0444292 0)
(0.39646 0.0369319 0)
(0.35864 -0.0109689 0)
(0.397098 -0.0552136 0)
(0.436324 -0.0398327 0)
(0.454852 -0.03238 0)
(0.447838 -0.00984687 0)
(0.435618 0.0161003 0)
(0.43646 0.0302864 0)
(0.403276 0.0197225 0)
(0.414612 0.00938546 0)
(0.407612 0.0145157 0)
(0.38697 0.0200666 0)
(0.355663 0.016842 0)
(0.363119 0.00740238 0)
(0.37504 0.0220499 0)
(0.351334 0.0461956 0)
(0.313884 0.0477801 0)
(0.313136 0.0256974 0)
(0.299015 0.0150831 0)
(0.275581 0.00973998 0)
(0.262418 0.00660927 0)
(0.279947 0.000575487 0)
(0.303289 0.02424 0)
(0.2644 0.0319524 0)
(0.263648 0.00126669 0)
(0.285001 -0.0232867 0)
(0.298229 -0.0175124 0)
(0.279919 -0.0118422 0)
(0.307765 0.00386814 0)
(0.288212 0.0290158 0)
(0.265062 0.0314915 0)
(0.24645 0.0244257 0)
(0.226857 0.0173663 0)
(0.204252 0.00792294 0)
(0.219554 -0.000728417 0)
(0.21265 0.00109218 0)
(0.214637 0.00122642 0)
(0.211868 -0.0236531 0)
(0.236127 -0.0437387 0)
(0.248065 -0.0131126 0)
(0.240231 0.0138663 0)
(0.232732 0.0334185 0)
(0.192227 0.0445005 0)
(0.161831 0.0265426 0)
(0.146169 -0.0167411 0)
(0.167678 0.00174464 0)
(0.118995 0.020004 0)
(0.138532 0.00529599 0)
(0.13246 0.0181323 0)
(0.108009 0.0277472 0)
(0.0750963 0.0207964 0)
(0.0846377 -0.0266728 0)
(0.147478 -0.0231064 0)
(0.15994 0.00666558 0)
(0.154906 0.0104829 0)
(0.130398 0.0167071 0)
(0.109989 -0.0131544 0)
(0.153918 -0.0238411 0)
(0.145273 -0.000220948 0)
(0.132408 -0.00378343 0)
(0.125013 -0.0190495 0)
(0.137241 -0.0444341 0)
(0.168372 -0.0776094 0)
(0.224223 -0.0795227 0)
(0.277921 -0.024636 0)
(0.282758 0.00471956 0)
(0.277196 0.0208332 0)
(0.235086 0.0411412 0)
(0.212082 0.0412759 0)
(0.167941 0.0419263 0)
(0.164291 0.0251644 0)
(0.170549 0.029056 0)
(0.137229 0.011302 0)
(0.170142 -0.00402792 0)
(0.153715 -0.0025065 0)
(0.144915 -0.0221236 0)
(0.149988 -0.00508563 0)
(0.138809 -0.0138161 0)
(0.181202 -0.0164643 0)
(0.20212 0.0230075 0)
(0.168403 0.0378063 0)
(0.12439 0.00642466 0)
(0.13421 -0.0317483 0)
(0.154785 -0.0127073 0)
(0.131247 0.0099712 0)
(0.13783 0.0225298 0)
(0.115462 0.0301182 0)
(0.090753 0.00893846 0)
(0.0896239 0.00756784 0)
(0.0599547 -0.00246086 0)
(0.0639731 -0.0285017 0)
(0.0968283 -0.0215784 0)
(0.112899 -0.0192126 0)
(0.142991 -0.0130742 0)
(0.148779 0.0169115 0)
(0.123521 0.0217242 0)
(0.12399 0.0173248 0)
(0.107315 0.0110876 0)
(0.103421 0.0175553 0)
(0.0906179 0.0112885 0)
(0.0984487 0.00110117 0)
(0.0850951 -0.00245515 0)
(0.0775892 -0.0152643 0)
(0.0834588 -0.00172542 0)
(0.0787678 -0.0190167 0)
(0.131038 -0.015438 0)
(0.12857 0.00163028 0)
(0.134082 -0.00976712 0)
(0.13383 -0.0124573 0)
(0.14608 -0.00929536 0)
(0.134432 -0.00330566 0)
(0.132156 -0.0278796 0)
(0.161646 0.0013784 0)
(0.128457 0.0498903 0)
(0.112331 0.041138 0)
(0.103944 0.0289258 0)
(0.102504 0.0391253 0)
(0.0645669 0.0310448 0)
(0.0332928 0.0209817 0)
(0.00225664 0.0127447 0)
(0.0186041 0.0180049 0)
(-0.00109029 0.0128321 0)
(0.000181934 -0.012633 0)
(-0.00848922 -0.0238558 0)
(0.0200033 -0.055162 0)
(0.0833143 -0.0315387 0)
(0.0736767 -0.00507373 0)
(0.0800583 0.00236792 0)
(0.0691818 0.0221884 0)
(0.0437927 0.0248393 0)
(0.0281019 0.0260862 0)
(0.0234916 0.0148565 0)
(0.0281217 0.000629464 0)
(0.0256647 -0.007203 0)
(0.0212665 -0.00631759 0)
(0.0190301 -0.0275864 0)
(0.0490084 -0.0280419 0)
(0.0389784 0.0103894 0)
(0.00518183 0.0420612 0)
(-0.0294927 0.0346723 0)
(-0.0306407 0.00241647 0)
(-0.0211881 -0.0339983 0)
(0.0244942 -0.0613774 0)
(0.0815761 -0.031751 0)
(0.08592 -0.00170675 0)
(0.0861362 0.00294344 0)
(0.0632657 0.0150823 0)
(0.0394538 0.0286524 0)
(0.0268869 0.023804 0)
(0.0255133 -0.0205916 0)
(0.0553761 -0.0429204 0)
(0.0704901 -0.018453 0)
(0.0678565 0.0149338 0)
(0.0528043 0.0261981 0)
(0.0464236 0.0242676 0)
(0.0182999 0.0125272 0)
(0.0201826 0.0150911 0)
(-0.00495206 0.0214294 0)
(-0.0206873 0.0178546 0)
(-0.0294201 0.0323846 0)
(-0.036331 0.0250845 0)
(-0.0189221 0.0136903 0)
(-0.0374773 0.0115266 0)
(-0.0329922 0.00551735 0)
(-0.0330657 0.00962133 0)
(-0.0473249 -0.000741483 0)
(-0.0466427 0.0153587 0)
(-0.0878829 -0.0107968 0)
(-0.0425283 -0.0479382 0)
(-0.0303616 -0.0203363 0)
(-0.0283375 -0.0361679 0)
(0.0287101 -0.0346373 0)
(0.0381577 -0.0218352 0)
(0.0593051 0.00170325 0)
(0.0292626 0.0140389 0)
(0.0219493 0.00421162 0)
(0.0018621 0.00611781 0)
(0.00736399 -0.0139952 0)
(0.0208887 -0.0297664 0)
(0.0390454 -0.0406409 0)
(0.0546212 -0.0417226 0)
(0.0878102 -0.0281651 0)
(0.101407 -0.0192608 0)
(0.113039 -0.0120314 0)
(0.0947462 -0.007047 0)
(0.0917223 -0.00835645 0)
(0.0906394 -0.00176851 0)
(0.109048 -0.00469062 0)
(0.127408 0.0174063 0)
(0.101511 0.042908 0)
(0.0963927 0.0613143 0)
(0.0513979 0.0568591 0)
(0.0111385 0.022746 0)
(0.00856771 0.0117172 0)
(-0.00210764 0.0211742 0)
(-0.0225634 0.0221444 0)
(-0.00745977 0.0108758 0)
(-0.0158604 0.016604 0)
(-0.0287894 -0.00263166 0)
(0.000843972 -0.014312 0)
(-0.0157491 -0.00518971 0)
(-0.0125048 -0.0106502 0)
(-0.0148241 -0.028775 0)
(0.01356 -0.0474885 0)
(0.0550293 -0.00760387 0)
(0.0338497 0.0195902 0)
(0.0201253 0.0276302 0)
(0.0147335 0.0372795 0)
(-0.00754511 0.0396303 0)
(-0.0443151 0.0297455 0)
(-0.0619123 0.030112 0)
(-0.113839 0.0130705 0)
(-0.0896582 -0.0319536 0)
(-0.057392 -0.00647704 0)
(-0.0693243 -0.0247317 0)
(0.00425642 -0.0580839 0)
(0.0437545 -0.0214976 0)
(0.0448055 -0.0187796 0)
(0.0463257 0.0066535 0)
(0.000463662 0.0261386 0)
(-0.013887 0.0183407 0)
(-0.0473936 0.0123 0)
(-0.0548648 0.0144804 0)
(-0.0711234 -0.0197478 0)
(-0.0219622 -0.0532606 0)
(0.00820909 0.0124274 0)
(-0.0196219 0.0528238 0)
(-0.0456887 0.0397919 0)
(-0.0649324 0.0184804 0)
(-0.0657545 -0.0151259 0)
(-0.0444834 -0.0282027 0)
(-0.0494496 -0.0164193 0)
(-0.0505657 -0.0170087 0)
(-0.0319382 -0.0066889 0)
(-0.0306703 -0.00317427 0)
(0.0125122 0.016386 0)
(0.00756759 0.0480732 0)
(-0.0185267 0.0407397 0)
(-0.0494173 0.0478808 0)
(-0.103044 0.00489438 0)
(-0.0609787 -0.0502405 0)
(-0.0431786 -0.0202044 0)
(-0.0669871 -0.00775625 0)
(-0.0771926 -0.0151719 0)
(-0.0697511 -0.0931388 0)
(0.11764 -0.60354 0)
(0.332792 -0.610044 0)
(0.580105 -0.585768 0)
(0.827651 -0.584153 0)
(1.08419 -0.607091 0)
(1.31129 -0.64685 0)
(1.51463 -0.671797 0)
(1.77918 -0.591034 0)
(2.01889 -0.603878 0)
(2.29086 -0.668826 0)
(2.564 -0.66351 0)
(2.80586 -0.674622 0)
(3.05594 -0.697835 0)
(3.3329 -0.712952 0)
(3.62254 -0.753939 0)
(3.90464 -0.775218 0)
(4.18532 -0.768666 0)
(4.4937 -0.785314 0)
(4.8275 -0.79982 0)
(5.16343 -0.828634 0)
(5.49767 -0.884924 0)
(5.85054 -0.933336 0)
(6.21987 -0.952334 0)
(6.60113 -0.949309 0)
(6.99857 -0.957201 0)
(7.41391 -0.978411 0)
(7.8335 -0.974899 0)
(8.22731 -0.996346 0)
(8.6156 -1.05889 0)
(9.0135 -1.11105 0)
(9.44566 -1.13562 0)
(9.88664 -1.17502 0)
(10.3616 -1.21677 0)
(10.8416 -1.22354 0)
(11.3252 -1.19852 0)
(11.8089 -1.1632 0)
(12.3036 -1.16372 0)
(12.8277 -1.18376 0)
(13.3477 -1.20795 0)
(13.8692 -1.20661 0)
(14.3715 -1.20486 0)
(14.8405 -1.22692 0)
(15.3223 -1.25243 0)
(15.8481 -1.29416 0)
(16.3697 -1.33015 0)
(16.8707 -1.30309 0)
(17.3475 -1.23844 0)
(17.8091 -1.17675 0)
(18.2779 -1.13393 0)
(18.7782 -1.16259 0)
(19.2907 -1.22819 0)
(19.7908 -1.24556 0)
(20.2367 -1.21295 0)
(20.6899 -1.21037 0)
(21.2641 -1.27108 0)
(21.873 -1.26345 0)
(22.3185 -1.10821 0)
(22.6647 -0.99928 0)
(23.128 -1.03246 0)
(23.675 -1.07446 0)
(24.0972 -1.09002 0)
(24.411 -1.05689 0)
(24.8186 -0.957069 0)
(25.2662 -0.934204 0)
(25.5888 -1.03454 0)
(26.003 -1.07398 0)
(26.5486 -0.918297 0)
(26.741 -0.654142 0)
(26.764 -0.565543 0)
(27.3103 -0.831445 0)
(27.9438 -0.881279 0)
(27.9018 -0.273739 0)
(27.9719 -0.216448 0)
(28.6609 -1.1521 0)
(28.6821 -0.767363 0)
(27.9174 0.715228 0)
(28.2957 -0.0296975 0)
(29.6111 -1.42574 0)
(29.4962 -0.160823 0)
(28.4469 0.708093 0)
(28.8148 -0.474477 0)
(29.7662 -0.315375 0)
(29.5005 0.206766 0)
(28.8567 -0.348987 0)
(28.7223 0.797674 0)
(28.8419 1.38835 0)
(29.0968 -1.03306 0)
(28.9415 -0.801925 0)
(28.2514 2.12965 0)
(28.2889 0.804603 0)
(28.697 -1.29338 0)
(28.0215 1.05604 0)
(27.394 1.82315 0)
(27.8153 -0.404703 0)
(27.5818 0.181671 0)
(26.6803 1.67424 0)
(26.5697 0.929768 0)
(26.579 0.509584 0)
(25.96 0.711754 0)
(25.402 0.645575 0)
(25.2854 1.05852 0)
(25.3801 0.774523 0)
(24.946 0.0124958 0)
(23.8412 1.15488 0)
(23.467 2.1815 0)
(24.0292 0.534769 0)
(23.4874 -0.417345 0)
(22.1989 1.23899 0)
(22.2837 1.76585 0)
(22.7313 0.31164 0)
(21.6221 0.324645 0)
(20.6913 1.42073 0)
(21.305 0.931443 0)
(21.3693 0.149074 0)
(20.0597 0.932874 0)
(19.5302 1.45303 0)
(20.1099 0.484144 0)
(19.9173 -0.110692 0)
(19.0119 0.556007 0)
(18.8947 0.946053 0)
(19.3259 0.390407 0)
(18.9559 0.0879478 0)
(18.1345 0.518458 0)
(18.0525 0.731486 0)
(18.4997 0.368187 0)
(18.3382 0.170913 0)
(17.645 0.409926 0)
(17.3618 0.458053 0)
(17.7603 -0.0145043 0)
(18.1492 -0.469041 0)
(18.0085 -0.225767 0)
(17.543 0.52806 0)
(17.2484 0.921939 0)
(17.3337 0.412339 0)
(17.7174 -0.703807 0)
(18.1693 -1.59966 0)
(18.4075 -1.64736 0)
(18.2112 -0.670267 0)
(17.7025 0.761055 0)
(17.3693 1.56151 0)
(17.631 1.13617 0)
(18.3202 -0.141042 0)
(18.9225 -1.39907 0)
(19.1325 -2.11054 0)
(19.0295 -2.16326 0)
(18.8843 -1.64616 0)
(18.8756 -0.819807 0)
(19.0481 0.0447375 0)
(19.4162 0.643533 0)
(20.0525 0.602911 0)
(20.8119 -0.160667 0)
(21.3529 -1.14538 0)
(21.5541 -1.68323 0)
(21.5765 -1.53971 0)
(21.6238 -1.06361 0)
(21.7021 -0.64704 0)
(21.6922 -0.253013 0)
(21.6602 0.113867 0)
(21.8336 0.185757 0)
(22.1556 -0.00171006 0)
(22.2795 0.0269095 0)
(21.9651 0.492937 0)
(21.3745 1.01466 0)
(20.8193 1.22152 0)
(20.2738 1.35671 0)
(19.5034 1.89568 0)
(18.3967 2.74401 0)
(17.1373 3.42451 0)
(15.8604 3.68907 0)
(14.6977 3.54869 0)
(13.639 3.19945 0)
(12.6677 2.81904 0)
(11.7926 2.49784 0)
(10.9955 2.20955 0)
(10.2798 1.95958 0)
(9.63891 1.71938 0)
(9.0638 1.48045 0)
(8.54073 1.31028 0)
(8.08127 1.21056 0)
(7.62886 1.12931 0)
(7.22115 1.01796 0)
(6.8812 0.921203 0)
(6.52094 0.869381 0)
(6.19116 0.799063 0)
(5.90946 0.729481 0)
(5.65513 0.677984 0)
(5.40463 0.645733 0)
(5.14064 0.568371 0)
(4.94489 0.492346 0)
(4.74679 0.465751 0)
(4.57427 0.436729 0)
(4.40524 0.429042 0)
(4.21564 0.414219 0)
(4.04574 0.369005 0)
(3.91738 0.354464 0)
(3.79299 0.344739 0)
(3.68987 0.342706 0)
(3.56635 0.368678 0)
(3.40521 0.340786 0)
(3.28651 0.31831 0)
(3.15731 0.303473 0)
(3.02492 0.279182 0)
(2.9179 0.259147 0)
(2.83472 0.261116 0)
(2.72734 0.258405 0)
(2.65246 0.233725 0)
(2.57473 0.243911 0)
(2.47286 0.229354 0)
(2.36217 0.211173 0)
(2.27244 0.178475 0)
(2.22448 0.155664 0)
(2.16237 0.138941 0)
(2.11382 0.158375 0)
(2.02175 0.163686 0)
(1.96729 0.108378 0)
(1.94194 0.11287 0)
(1.87635 0.120064 0)
(1.82371 0.102636 0)
(1.80753 0.108114 0)
(1.77297 0.131591 0)
(1.71151 0.169221 0)
(1.6378 0.1957 0)
(1.53896 0.145716 0)
(1.49944 0.0769269 0)
(1.47352 0.0347519 0)
(1.47072 0.0552666 0)
(1.41756 0.106796 0)
(1.35467 0.0775489 0)
(1.3433 0.0165669 0)
(1.34692 -0.00112377 0)
(1.36192 0.0732809 0)
(1.29582 0.121553 0)
(1.24687 0.0672937 0)
(1.23608 0.0550447 0)
(1.18947 0.0715491 0)
(1.16948 0.0709892 0)
(1.16387 0.0951079 0)
(1.11819 0.140009 0)
(1.05128 0.111 0)
(1.03104 0.0778094 0)
(0.979548 0.0930397 0)
(0.929643 0.0315029 0)
(0.933437 -0.0036181 0)
(0.929911 0.0361094 0)
(0.902661 0.0915975 0)
(0.829159 0.1216 0)
(0.788712 0.0597883 0)
(0.798203 -0.00450554 0)
(0.82042 0.00977522 0)
(0.825741 0.0574832 0)
(0.774696 0.0896682 0)
(0.738713 0.0617476 0)
(0.752456 0.0356417 0)
(0.747233 0.0715656 0)
(0.707847 0.0894286 0)
(0.671851 0.0412091 0)
(0.661834 0.0232742 0)
(0.639208 0.0317737 0)
(0.634553 0.0440471 0)
(0.600277 0.0859993 0)
(0.558901 0.0647069 0)
(0.551108 0.0285454 0)
(0.554148 0.0362539 0)