/*--------------------------------*- C++ -*----------------------------------*\
| =========                 |                                                 |
| \\      /  F ield         | OpenFOAM: The Open Source CFD Toolbox           |
|  \\    /   O peration     | Version:  v2012                                 |
|   \\  /    A nd           | Website:  www.openfoam.com                      |
|    \\/     M anipulation  |                                                 |
\*---------------------------------------------------------------------------*/
FoamFile
{
    version     2.0;
    format      ascii;
    class       volScalarField;
    location    "350";
    object      aE;
}
// * * * * * * * * * * * * * * * * * * * * * * * * * * * * * * * * * * * * * //

dimensions      [0 0 0 0 0 0 0];


internalField   nonuniform List<scalar> 
65536
(
4.28878
4.05702
4.34816
4.23868
4.32345
4.5642
4.37238
4.4407
4.56082
4.6414
4.80983
4.81589
4.73577
4.7857
4.90104
5.01163
5.00935
5.06398
5.08715
5.11201
5.17372
5.21055
5.21464
5.23898
5.2381
5.2404
5.2569
5.2603
5.26511
5.31102
5.33263
5.2942
5.2979
5.31994
5.29431
5.28056
5.31058
5.33498
5.34695
5.34999
5.33645
5.34714
5.39311
5.40789
5.34961
5.32874
5.40475
5.40431
5.26575
5.12045
5.20856
5.39009
5.36435
5.04548
4.95057
5.22643
5.52274
5.56991
4.61202
4.42214
5.09454
5.41563
5.23436
3.29111
2.36958
2.21614
1.70658
1.7047
0.677989
0.111052
0.288842
0.556616
0.189133
0.533386
0.264743
2.42918
0.175783
0.997525
1.57394
1.74305
2.65797
3.43884
0.825026
1.51606
1.58814
2.86963
3.70046
3.83295
4.91634
2.74721
1.16121
1.97021
4.00449
4.46825
4.66277
4.79659
4.81053
4.88218
5.07775
5.27639
5.38604
5.32963
5.41615
5.39979
5.41318
5.45218
5.43096
5.42645
5.29348
5.15642
4.92861
4.66514
4.41332
4.21953
4.10422
4.26074
4.43008
4.58496
4.68384
4.74394
4.87695
4.66992
4.86721
4.74613
4.75955
4.89341
4.83904
4.92925
4.94693
4.91822
4.92093
4.94047
4.88022
4.87056
4.88801
4.98328
4.90129
4.86498
4.88585
4.80175
4.84941
4.74827
4.81839
4.93814
4.95565
4.84146
4.93997
4.87227
4.91744
4.95837
4.96037
4.95997
4.76524
4.94659
4.95666
4.8632
4.95356
4.92115
4.89304
4.95144
4.92801
4.97974
4.93535
4.91579
4.86811
4.88174
4.95606
4.81571
4.90905
4.93903
4.92176
4.94728
4.91077
4.89307
4.97458
4.7438
4.92275
4.92475
4.92555
4.90737
4.89148
5.01408
4.95385
4.85644
4.89777
4.91839
4.98021
4.94206
4.83267
4.93655
4.85241
4.89413
4.90504
4.73454
4.88754
4.955
4.92371
5.02175
4.95183
4.91879
4.93075
4.93524
4.85261
4.90169
4.9114
4.85606
4.97147
4.94182
4.91693
4.82345
4.86129
4.95991
4.77556
4.91334
4.91263
4.90259
5.00037
4.93559
4.73735
4.8837
4.92614
4.86193
4.72089
4.94575
4.91601
4.78615
4.96254
5.00528
5.0075
4.91215
4.91116
4.76916
4.896
4.85036
4.91591
4.9792
4.91421
4.84953
4.89465
4.98431
4.93945
4.94923
4.83031
4.89149
4.8937
4.92266
4.83854
4.91887
4.78778
4.92596
5.02318
4.88744
4.88133
4.92023
4.92163
4.96485
4.95144
4.844
4.98025
4.9181
4.92906
4.98717
4.95043
4.7503
5.00546
5.01562
4.91142
4.94328
4.88348
4.78899
4.91522
4.81842
4.93272
4.92777
4.95725
4.95323
4.91443
4.98228
5.04993
4.97541
4.92205
4.93595
4.94963
4.88513
4.98707
4.83497
4.84535
4.85675
4.96637
4.93598
4.79248
4.83979
4.77249
4.92961
4.71974
4.90798
4.88443
4.80667
4.89803
4.85903
4.91008
4.94177
4.86068
4.92677
4.86997
4.77367
4.93811
4.96997
4.91112
4.94572
4.91316
4.83886
4.9751
4.94768
4.93216
4.92981
4.93912
4.93352
4.92859
4.92465
4.9309
4.90545
4.96252
4.84414
4.92745
4.99928
4.96415
4.99128
5.02668
5.0085
4.88643
4.97313
4.9629
4.95782
4.97152
4.88994
4.94006
4.9756
4.92481
4.91179
4.85505
4.95885
4.93486
4.89796
4.95592
4.90554
4.88492
4.92601
4.93682
4.8767
4.9939
4.78658
5.01819
4.93055
4.93629
4.9455
4.99566
4.95239
4.95447
4.85217
4.87681
4.93187
4.93811
4.89625
4.94654
4.89484
4.94497
4.95965
4.80872
4.89599
4.97885
4.88935
4.99829
4.9392
4.82118
4.89065
4.9229
4.91403
4.86373
4.96006
4.97044
4.94934
4.9356
4.96106
4.97636
4.8938
4.91279
4.9226
4.90589
4.85155
4.91809
4.98412
4.8538
4.84808
4.97129
4.87346
4.96349
4.84471
4.92835
4.95544
4.90211
4.77115
4.90366
4.92568
4.89961
4.91404
4.83752
5.01467
4.8693
4.68679
4.98679
4.94746
4.88561
4.89724
4.68023
4.93607
4.8827
5.00366
4.97388
4.89458
4.89476
4.94748
4.92859
5.0119
4.86996
4.94577
4.81945
4.87044
4.89581
4.88568
4.83972
4.84449
4.8647
4.85968
4.90018
4.90832
4.7915
4.83061
4.88725
4.87587
4.97922
4.92125
4.95994
5.00108
4.84236
4.91688
4.7674
4.9127
4.90077
4.93308
4.91092
4.939
4.88076
5.01209
4.76346
4.93141
4.96349
4.83149
4.90933
4.88123
4.86539
4.92111
4.95551
5.01351
4.87255
4.9554
4.95416
4.89327
4.98436
4.92112
4.98111
4.93409
4.75932
4.9108
4.85379
4.91978
4.8895
4.93698
4.89041
4.87967
4.90875
4.94989
5.00931
4.93623
4.83738
4.94705
4.90306
4.94268
4.93587
4.89754
4.68459
4.71559
4.85352
4.88676
4.87933
4.87524
4.93008
4.91067
4.80745
4.9423
4.89869
4.92904
4.90748
4.73931
4.89764
4.91568
4.92101
4.91372
4.92432
4.88882
4.92226
4.88058
0.891329
0.545617
0.994907
0.751325
0.808159
1.16262
0.791434
0.856974
0.955024
0.95527
1.17207
1.1151
0.901924
0.908317
1.00892
1.13126
1.00996
1.06476
1.02588
0.971019
1.03123
1.04577
0.986033
1.00858
0.954885
0.909756
0.922239
0.893149
0.846367
0.928261
0.964635
0.829877
0.833342
0.916277
0.856939
0.796556
0.838248
0.880465
0.913864
0.935503
0.898454
0.904952
1.01419
1.09652
0.990543
0.92627
1.16766
1.29596
1.15344
0.930407
1.1312
1.60386
1.67533
1.14309
0.964778
1.40002
2.10273
2.45818
1.08577
0.717319
1.95256
2.40305
2.48071
0.556642
0.33392
0.0303324
0.0535045
0.0359239
1.29937
2.0376
2.04335
1.05475
1.24665
0.686734
2.73723
0.268801
1.13997
0.546137
0.537982
0.731688
2.17143
2.41873
2.04509
0.0945021
0.136226
2.64653
2.08744
2.37737
2.12467
1.0999
0.907751
1.58235
2.44035
2.00094
1.71106
1.56925
1.51991
1.72431
2.15872
2.58361
2.32669
1.90097
2.04064
1.67803
1.52226
1.69723
1.51464
1.85981
1.61319
2.12821
2.09408
2.13626
2.19305
2.15026
2.06698
2.10516
1.96925
1.92486
1.95731
1.93797
2.15929
1.48519
2.0831
1.6347
1.52072
1.93587
1.87331
2.12327
2.03861
1.94224
1.91208
1.95073
1.7779
1.80889
1.82155
2.20217
1.94725
1.85293
2.02882
1.99408
2.03456
1.71075
1.88028
2.1016
2.15799
1.75985
2.10951
1.84772
2.01448
2.12056
2.09222
2.17031
1.54117
2.15152
2.04631
1.77153
2.10316
1.91115
1.9023
2.05209
1.99883
2.21208
2.0257
2.00048
1.85241
2.02349
2.23272
1.7295
2.05215
2.04485
2.03257
2.05629
1.96529
1.84563
2.27238
1.52807
1.99931
2.01285
1.9878
1.9619
1.94675
2.23713
2.02859
1.76668
2.04458
1.90142
2.22592
2.0884
1.89978
2.18083
1.79502
2.00621
2.00294
1.54346
2.03218
2.20504
1.9119
2.36578
2.06449
1.93786
1.92597
2.0363
1.75707
1.96664
1.99649
1.72445
2.01938
1.92934
1.92575
1.63336
1.77758
2.17486
1.5236
2.09768
1.95408
1.92349
2.3257
2.10516
1.50111
1.97458
2.08746
1.96325
1.43587
2.1598
2.07928
1.67821
2.21594
2.31068
2.33143
1.99104
2.05422
1.64812
1.9718
1.71183
2.04996
2.13435
1.86423
1.77107
1.85693
2.26888
2.04236
2.15969
1.76265
1.89228
1.87635
1.96765
1.74565
2.12657
1.72896
2.1183
2.40295
1.87257
1.88622
1.94525
1.87836
2.0881
2.04996
1.73193
2.24047
2.01012
2.05338
2.2946
2.18863
1.49346
2.29674
2.33234
1.95169
2.10955
1.97294
1.80334
2.16261
1.75621
2.07931
1.97269
2.02466
1.97841
1.77202
2.03233
2.2962
2.0054
1.83149
1.92154
2.01033
1.84271
2.33636
1.80333
1.89681
1.82888
2.28488
2.20994
1.83895
1.97394
1.81289
2.24445
1.52611
2.10508
1.99734
1.71896
2.13551
1.89582
1.94833
2.2289
1.89126
2.02358
2.03805
1.77214
2.17525
2.22285
1.95879
2.03512
1.97385
1.69595
2.08811
1.97398
1.86829
1.93226
1.96387
2.02501
1.99428
2.15521
2.00024
1.9263
2.18919
1.75967
1.97482
2.13982
1.96977
2.0724
2.22579
2.1432
1.75212
2.05349
1.99807
1.92649
2.0822
1.82139
1.9572
2.10206
1.9269
1.89795
1.72174
2.14604
2.08347
1.89812
2.07198
1.94236
1.94732
2.10885
2.21401
2.02406
2.448
1.63393
2.40473
1.97238
2.06078
1.95049
2.11436
1.99803
2.09831
1.79399
1.89016
2.14881
2.02734
2.02354
2.06813
1.91755
2.1
2.23676
1.7161
1.99882
2.3103
1.98386
2.34486
2.15621
1.70653
2.07281
2.05723
1.8672
1.71853
1.96537
2.01705
1.97544
1.87879
1.92844
2.09536
1.92359
1.91554
1.95541
1.92225
1.78189
2.00548
2.2149
1.79561
1.83051
2.32214
1.90049
2.24541
1.79183
2.08279
2.2101
2.16279
1.85015
2.1431
2.11115
1.93688
1.95473
1.74665
2.38649
1.97589
1.49712
2.36722
2.16581
2.02596
2.03821
1.43027
2.17058
1.9832
2.38209
2.24156
1.94917
1.95258
2.04634
2.0197
2.3413
1.85108
2.29152
1.74598
1.91425
2.02053
2.05535
1.92292
1.89286
1.8979
1.82712
2.05682
2.09439
1.75158
1.82786
1.93499
1.86706
2.18024
1.95416
2.05791
2.27038
1.83357
2.04121
1.51319
1.97796
2.03292
1.98603
2.02736
2.12129
1.90706
2.42442
1.62472
2.14926
2.20736
1.7471
2.02955
1.80869
1.85812
1.998
2.06031
2.33944
1.84923
1.98428
2.07377
1.74063
2.08002
1.89318
2.11336
2.08156
1.67025
2.07125
1.76126
2.01686
1.85113
2.07312
1.96916
1.85034
1.91035
2.05525
2.28132
2.092
1.73396
2.14712
1.88359
1.99981
1.99979
1.99874
1.47023
1.67398
1.97955
2.00704
1.9514
1.84525
2.08862
2.06273
1.75322
2.20831
2.10514
2.09195
2.14713
1.7097
2.01447
1.9647
1.90815
1.98145
1.90868
1.75099
1.90591
1.73187
1.84251
2.02457
1.77935
1.90885
1.87693
1.64706
1.88864
1.85498
1.77954
1.76387
1.59695
1.64933
1.81122
1.79651
1.69872
1.5854
1.67488
1.62908
1.64676
1.67442
1.60086
1.56699
1.6136
1.60203
1.63967
1.66474
1.6428
1.64956
1.67052
1.60076
1.57813
1.68988
1.68571
1.62302
1.66672
1.69584
1.64298
1.60336
1.58635
1.57924
1.59614
1.55334
1.43873
1.39208
1.49359
1.50025
1.26863
1.21701
1.42762
1.59286
1.4131
0.932822
0.97896
1.48769
1.51593
1.10762
0.217619
0.258467
1.67879
1.70695
0.441601
0.50223
0.69276
2.00707
1.49113
1.31956
1.3556
1.50838
0.734217
0.472828
0.159201
0.619134
0.322833
0.875865
0.577073
0.300061
0.135917
1.25165
1.83595
1.42812
0.622251
0.218091
1.71973
1.13668
0.504384
0.708607
2.25395
0.590584
2.3431
0.758972
1.6133
1.10665
0.997415
1.27199
1.54793
1.92208
1.79967
1.90946
1.40303
0.169124
0.507185
0.614502
0.800357
0.355777
0.987388
0.0754634
1.85247
0.844521
2.20826
1.11234
1.82672
1.75286
1.66931
1.66455
1.78922
1.63329
1.62783
1.64531
1.46862
1.42125
1.34786
2.16292
1.20791
1.89605
2.23115
1.58872
1.33431
1.15391
1.43629
1.45467
1.55696
1.47394
1.62963
1.45535
1.52213
1.00986
1.47652
1.70275
1.45787
1.40284
1.44308
1.89158
1.60134
1.43021
1.19399
1.75038
1.16177
1.56572
1.30474
1.22172
1.33249
1.20315
2.08946
1.05203
1.43234
1.66354
1.13073
1.56617
1.37629
1.30234
1.28568
0.900847
1.38159
1.43829
1.7932
1.29192
1.01435
1.88997
1.21796
1.24985
1.15038
1.24326
1.37003
1.64033
0.903963
2.06534
1.55369
1.39735
1.49541
1.37326
1.19408
1.13455
1.3511
1.64779
0.974657
1.69607
1.02625
1.32587
1.35922
1.16103
1.8869
1.42903
1.55385
2.11506
1.28761
0.992714
1.72995
0.758455
1.30631
1.39112
1.63711
1.33843
1.78443
1.31864
1.32124
1.77883
1.46945
1.59886
1.49693
2.00226
1.74543
1.11915
2.19262
1.11373
1.48864
1.54531
0.86225
1.44293
2.27524
1.38551
1.21788
1.21339
2.27181
1.23128
1.22462
1.89209
1.12459
0.965292
0.87441
1.42224
1.26243
1.91619
1.50866
1.92226
1.10748
1.20365
1.59034
1.5556
1.50491
0.821764
1.29491
1.06161
1.72984
1.6499
1.6376
1.46946
1.74
1.16952
1.83834
1.32362
0.829538
1.57387
1.43364
1.42204
1.62528
1.18809
1.2796
1.66426
0.941983
1.37813
1.46217
1.11005
1.2381
2.21025
1.04009
0.855031
1.44066
1.2507
1.54072
1.7113
1.22542
1.78576
1.25745
1.3793
1.28916
1.30051
1.75155
1.24378
0.786475
1.2418
1.61389
1.38364
1.33952
1.58649
0.934772
1.71096
1.52183
1.72878
0.919926
1.18192
1.60497
1.56435
1.80028
1.22323
2.21469
1.25097
1.40373
1.92661
1.17206
1.67349
1.78054
0.970173
1.47472
1.56393
1.30667
1.75942
1.26602
1.13584
1.53689
1.51485
1.45367
1.8941
1.34699
1.2368
1.51275
1.23684
1.37116
1.20612
1.43463
0.879068
1.5056
1.55208
1.14295
1.78333
1.4073
1.21764
1.40029
1.16312
0.860238
1.12693
1.72425
1.21122
1.3045
1.57499
1.22321
1.65932
1.4838
1.1929
1.33077
1.48447
1.77796
1.06227
1.04429
1.53384
1.36782
1.45811
1.34978
1.20427
1.04623
1.3487
0.747191
2.12875
0.801579
1.48179
1.12793
1.51131
1.25583
1.28272
1.13992
1.52332
1.56632
1.16456
1.6818
1.38918
1.50092
1.60841
1.29151
0.998096
1.7948
1.42636
0.885776
1.45364
1.00516
1.25612
1.98343
1.10506
1.19697
1.70663
1.75759
1.45693
1.24937
1.16264
1.47498
1.61955
1.21705
1.30969
1.58532
1.52901
1.53205
1.74121
1.37289
1.11355
1.73276
1.69331
0.842644
1.62249
1.04239
1.80941
1.37179
1.1883
1.25448
1.61203
1.16111
1.25456
1.587
1.55681
1.82795
0.974082
1.58217
2.22186
1.0852
1.43442
1.44637
1.50892
2.2521
1.25217
1.50302
1.04971
1.17378
1.53953
1.43522
1.46893
1.34343
0.837183
1.63616
0.806608
1.81532
1.59521
1.41308
1.38313
1.6245
1.66667
1.65304
1.71652
1.24877
1.31195
1.76292
1.63506
1.59069
1.62274
1.12136
1.38156
1.34615
0.887842
1.41874
1.36794
2.28025
1.65826
1.32196
1.77015
1.42832
1.2432
1.56333
0.811423
1.99148
1.26768
1.13281
1.73756
1.34341
1.94308
1.66619
1.45889
1.57645
0.897189
1.56918
1.58839
1.14459
1.7605
1.35203
1.63098
1.56524
1.46622
1.8309
1.31195
1.80897
1.28316
1.65129
1.25618
1.2294
1.62271
1.534
1.41887
1.04852
1.17036
1.68695
0.9615
1.45539
1.36519
1.38966
1.37876
2.25886
1.95341
1.52111
1.45033
1.51426
1.78877
1.3137
1.34178
1.81227
1.09756
1.17198
1.50912
1.27129
1.83651
1.52537
1.42943
1.4542
1.08788
1.45029
1.81984
1.51211
1.81137
1.07832
1.01489
1.09514
1.06131
1.07454
1.15118
1.09651
1.12767
1.14098
1.13401
1.197
1.22782
1.22079
1.20755
1.19312
1.23457
1.24395
1.2701
1.27882
1.28072
1.27007
1.26709
1.27525
1.29232
1.28482
1.28072
1.27456
1.26727
1.26647
1.27376
1.26974
1.25569
1.25223
1.25613
1.25361
1.24443
1.21705
1.21901
1.25534
1.27495
1.24191
1.19477
1.18701
1.19096
1.1361
1.09221
1.15531
1.16123
1.15236
1.20451
1.31039
1.42206
1.23145
0.952275
0.962198
1.1863
1.71356
1.65022
0.811355
0.610615
1.38003
1.63359
1.40194
0.614689
0.166264
0.0724677
0.378701
0.44664
1.19788
1.15388
1.19779
1.26468
1.56585
0.473609
1.23873
0.380413
0.863593
0.930475
0.960853
1.12291
1.82144
0.302653
0.320816
0.507726
1.18882
2.8351
0.271511
1.38203
0.345228
1.3198
0.168256
0.430774
1.52842
1.3587
0.876152
0.0790987
0.428736
0.456131
0.135577
1.33653
2.46722
0.85705
1.1776
3.18896
0.714756
1.98254
0.917951
1.52989
1.08647
2.00724
1.38862
1.6069
1.79072
1.65836
1.23193
1.24494
1.19769
1.09541
1.11717
1.26867
1.15929
0.182879
1.36151
0.418928
0.0702559
0.822664
1.39799
1.39494
1.05522
1.03248
0.604986
0.850268
0.709123
0.933454
0.866212
1.41355
0.854272
0.750528
1.22978
1.10562
1.10018
0.49798
0.885957
1.067
1.40245
0.659094
1.43896
0.932604
1.32478
1.38729
1.2917
1.41782
0.379011
1.65366
0.946975
0.775716
1.49641
0.991837
1.33024
1.1836
1.2375
1.7074
0.989727
1.17855
0.685991
1.41967
1.81035
0.441552
1.3189
1.33179
1.41011
1.26341
0.972485
0.814798
1.88626
0.435327
0.95578
1.12498
0.945867
1.24666
1.47675
1.24214
1.17009
0.890655
2.03242
0.77613
1.64788
1.19268
1.28097
1.43477
0.532743
1.16484
0.993269
0.247377
1.2737
1.62975
0.595716
1.91939
1.16808
1.20016
0.576663
0.933817
0.216684
1.20487
1.16271
0.613472
0.985739
0.685432
0.872624
0.00473476
0.536615
1.39092
0.117711
1.56186
1.10688
1.01171
1.97175
1.03994
0.262964
1.41541
1.3545
1.55478
0.113771
1.32443
1.37251
0.275996
1.40372
1.73639
1.89645
1.17437
1.341
0.256174
1.08074
0.644132
1.53271
1.15479
0.883679
0.845563
1.08023
1.79638
1.29349
1.61957
0.672205
0.71576
0.729319
1.1427
0.862528
1.48683
0.467583
1.2269
1.91869
1.18015
1.36844
1.22451
0.792702
1.41008
1.21956
0.913348
1.81922
1.21984
0.997657
1.40645
1.27468
0.0391949
1.41739
1.75052
1.13433
1.42448
1.08926
0.907142
1.49973
0.726701
1.36278
1.13225
1.23128
1.14753
0.462003
1.13044
1.73077
1.23121
0.794276
1.33451
1.28713
0.996671
1.66316
0.952612
1.11878
0.888424
1.9209
1.44288
1.07054
1.17482
0.765072
1.46311
0.253561
1.48509
1.07857
0.130089
1.27133
0.810223
0.715777
1.6971
1.15797
0.904914
1.37361
0.844034
1.35746
1.49732
1.05393
0.881817
1.00838
0.458727
0.874532
1.29308
0.917893
1.37662
0.990744
1.30354
1.09525
1.98893
0.882238
0.848605
1.25862
0.506922
1.04358
1.06309
0.993019
1.2316
1.65645
1.25797
0.420955
1.18961
1.10629
0.649474
1.15612
0.663138
0.837291
1.19918
1.31659
1.20371
0.858535
1.58019
1.56531
0.719443
0.807293
0.905172
1.26297
1.36041
1.60932
1.27843
2.09798
0.286559
2.00937
1.02064
1.33014
0.833591
1.12545
1.47258
1.62891
1.48013
1.15998
1.56525
0.829238
1.21143
1.08264
0.823957
1.14532
1.55905
0.703651
1.10362
1.95865
1.12169
1.64536
1.3923
0.572961
1.65706
1.51243
0.646757
0.62893
1.02042
1.14623
1.47016
0.98303
0.548013
1.26913
1.48248
0.964678
0.975685
1.03985
0.625678
1.14184
1.57339
0.891184
0.909292
2.02821
0.948001
1.73944
0.682555
1.2056
1.43334
1.44484
1.21226
1.69664
1.35253
0.854548
1.04882
0.626016
1.73324
1.06968
0.12379
1.5514
1.12503
1.22938
1.09977
0.0460454
1.43807
1.13641
1.64681
1.6256
1.0425
1.07415
0.839771
1.17069
1.96181
1.01941
2.04095
0.766483
0.978808
1.21525
1.255
1.05814
0.87869
0.791909
0.703522
1.36764
1.17304
0.76919
1.16682
0.9636
0.806825
1.40456
1.23827
1.06476
1.74596
1.12401
1.16347
0.00284163
0.808602
1.40937
0.653368
1.1295
1.42753
1.0945
1.97482
0.583622
1.35502
1.53898
0.836196
1.23999
0.3912
0.794011
1.23882
0.594305
1.78792
0.951296
0.749614
1.36082
0.742501
1.01844
0.815706
0.761412
1.00734
0.596676
1.26377
0.709618
1.30811
0.735543
1.09791
1.22647
0.215775
0.761464
0.900941
1.5039
1.51231
0.938932
1.83432
0.920508
1.02958
0.962767
1.35185
0.251026
0.438848
1.01215
1.08265
0.861734
0.372894
0.993976
1.14092
0.612991
1.66851
1.54082
1.0791
1.82047
1.23146
1.23813
1.11603
0.984429
1.40002
0.985116
0.543523
0.988928
0.57951
1.30472
1.31847
1.29285
1.30635
1.3126
1.2843
1.31489
1.31805
1.30622
1.30142
1.28737
1.31899
1.35345
1.3355
1.31865
1.29454
1.34467
1.34963
1.31617
1.32827
1.32815
1.32619
1.305
1.26542
1.26473
1.28626
1.27941
1.28422
1.26546
1.20282
1.12092
1.13856
1.16363
1.21281
1.2339
1.08855
1.00606
1.03414
1.132
1.1354
1.05461
1.06018
1.04197
1.08817
1.05862
1.06442
0.969111
0.938347
1.08326
1.19875
1.20438
1.10033
1.05093
1.0346
0.910709
0.788616
0.71254
0.941554
1.19751
0.951442
0.518566
0.626928
0.98972
1.11798
0.988722
1.14822
1.07702
0.863912
0.194651
0.222618
0.216146
1.29809
0.229355
0.767801
0.280618
0.909221
0.551825
1.42525
1.73665
1.75667
0.959554
1.84428
0.670865
1.4366
1.59168
2.11826
1.0373
0.528169
1.38181
0.412947
0.525667
1.23825
0.440775
0.320716
1.14703
1.33926
1.04726
1.99636
2.34323
0.640568
1.41276
2.05715
0.957292
0.712569
2.28387
0.0987789
1.6771
2.16573
0.331971
1.76101
1.64728
1.36719
1.2312
1.15366
1.58367
1.41933
1.38166
1.18847
1.15151
0.898785
1.39439
2.35574
0.689947
1.75186
2.22496
1.15209
0.607088
0.970398
1.1534
0.887002
1.55198
0.87934
1.11801
0.793432
0.979399
0.506133
1.25507
1.34879
0.817165
1.63086
0.955484
1.90462
1.27565
1.21404
0.678054
1.51857
0.649455
1.23771
0.731507
0.753384
0.976462
0.810904
2.32971
0.391515
1.00295
1.25121
0.320416
0.881094
0.616651
0.959621
0.656349
0.21174
1.18348
0.861215
1.58448
0.68362
0.0333693
1.97334
0.942794
0.793212
0.673658
0.806965
1.21564
1.29862
0.178327
2.33698
1.2768
0.957879
0.901424
0.334906
0.469529
1.13692
1.08098
1.39124
0.138128
1.57263
0.34016
1.03402
0.703639
0.55944
1.44221
0.749268
1.12653
2.22016
1.00525
0.34186
1.74853
0.385232
0.856198
0.72001
1.63068
1.07773
1.1133
0.540806
0.943049
1.59204
1.19767
1.47481
1.10186
1.63561
1.50832
0.815476
2.34717
0.520318
0.995625
1.27032
0.0264534
1.59877
2.54806
0.578417
0.420733
0.00535808
2.39482
0.985397
0.775639
1.63079
0.858912
0.407504
0.208112
1.0251
0.771185
1.55498
0.85884
1.31989
0.692465
1.01722
0.902468
0.945219
0.791627
0.211112
0.786727
0.494923
1.71601
1.4641
1.26505
0.754302
1.2432
0.680617
1.75533
1.03711
0.250048
0.913103
0.56334
0.775286
1.35712
0.465471
0.926844
1.28786
0.111398
0.979361
1.38583
0.912029
1.0724
2.29768
0.693057
0.0866894
0.880619
0.666094
1.19388
2.00758
0.626887
1.49651
0.616933
0.964396
0.768965
0.895004
1.44866
0.838676
0.133499
0.799822
0.992698
0.570805
0.851616
1.30548
0.418064
1.27414
1.11448
1.32397
0.201182
0.855583
1.23124
1.12042
2.08318
0.874674
2.44807
0.557797
0.869652
1.56327
0.760263
1.40418
1.20996
0.188959
0.825527
1.16393
0.777359
2.16748
1.05513
0.700717
0.872958
1.13003
1.09994
1.97755
1.24294
0.501339
0.857368
0.542971
1.21535
0.85844
1.23773
0.359486
1.43046
1.27351
0.728015
1.77077
1.07781
1.13385
0.872672
0.821441
0.158829
0.610163
1.49087
0.660365
0.774513
1.37352
0.703338
1.68463
1.31073
0.64632
0.0487119
0.45847
1.01659
0.291386
0.254984
1.15142
1.30211
1.17372
0.802328
0.804276
0.474803
1.00355
0.105705
1.97146
0.205342
1.21943
0.944323
1.00587
0.988129
0.570107
0.504533
0.571615
1.12336
0.63698
1.41429
1.0058
0.960129
1.26795
1.08077
0.545499
1.50687
1.37921
0.303335
1.21771
0.255589
0.833246
1.63307
0.440245
0.575641
1.54056
1.32782
0.760518
0.883149
0.494628
1.01933
1.74115
0.90893
0.41335
1.04047
0.828011
0.742887
1.4816
1.03658
0.36882
1.20359
1.34294
0.267166
1.44177
0.431365
1.52434
0.885863
0.668836
0.718158
2.31961
0.0584753
0.725161
1.29843
1.03185
1.80046
0.669565
1.41344
2.18927
0.710679
1.18889
0.88374
1.02653
1.97964
0.701452
1.31059
1.01964
0.971755
1.3128
1.1957
1.55546
1.15943
0.0927252
1.39734
0.37522
1.7392
1.31006
0.997742
0.96718
2.17157
1.11644
1.12327
1.16507
0.475512
1.1015
1.55308
0.954672
1.25634
1.49043
0.781452
0.66937
0.91154
0.024962
0.218358
0.707609
2.09442
1.63507
0.810327
1.76927
1.16763
0.614683
0.913061
0.0474733
2.29725
0.819805
0.439089
1.28482
0.958483
1.88262
1.35976
0.61304
1.93983
0.381956
1.34314
1.62231
0.864993
1.34659
1.18977
1.5711
1.78197
1.33516
1.85563
0.948544
1.353
0.847248
1.22783
1.0234
0.398376
0.508081
0.986331
1.38203
0.953326
0.70427
1.28759
0.446867
1.4621
0.732445
1.00597
0.545329
2.49237
1.83939
1.19667
0.938841
1.12309
1.62618
1.05025
0.843654
1.54645
0.444455
0.651963
1.17037
0.439521
2.81725
1.04692
0.870454
0.661303
0.417728
0.988862
1.59453
1.07644
1.61343
1.08609
1.10044
1.08932
1.08446
1.09185
1.03097
1.06238
1.06821
1.01817
1.01683
0.970845
0.970363
0.972894
0.974628
0.901336
1.01206
0.955807
0.90314
1.02745
1.0429
0.994814
0.991465
1.05811
1.08937
1.1034
1.14927
1.19204
1.15009
1.16596
1.25161
1.41274
1.38995
1.32602
1.23923
1.1955
1.44003
1.43527
1.53525
1.40686
1.35893
1.45479
1.2623
1.41905
1.37409
1.38541
0.894271
0.802179
1.1433
1.1335
1.17119
1.17955
0.965918
0.822908
0.907417
0.84887
0.855167
0.702863
0.299858
0.410937
0.804449
1.09409
0.907703
0.0602251
0.753829
0.0509585
0.259594
0.0739382
0.305686
0.852489
1.06245
0.825538
1.15541
0.0623832
0.499436
1.28945
0.884326
0.440648
1.08372
0.720065
1.13286
1.53704
0.541724
0.793716
1.47016
0.533061
0.533473
0.861295
1.24754
0.119158
0.426481
0.776602
0.0956492
1.47458
1.2347
0.729621
1.39221
0.761098
0.47537
1.41205
1.57062
0.681028
1.29856
2.86521
0.10126
1.7378
1.00088
1.04635
1.10313
2.36958
0.795981
1.38739
1.84183
1.5115
1.75885
0.919325
0.892365
0.592622
1.00115
0.815114
1.05198
0.663646
1.73497
0.760125
1.0878
1.19757
0.303832
1.77946
1.31207
1.39967
0.885259
0.0735174
0.938686
0.77661
1.00938
0.348027
1.08129
0.66143
0.637665
1.18706
1.73069
0.595949
1.52484
0.323192
1.51122
1.22287
0.262131
1.15816
0.634137
1.56165
1.13624
1.83525
1.13107
1.62829
1.11133
0.919895
0.448687
1.50562
0.859571
1.21473
0.584251
1.02139
1.26127
0.379754
0.995469
1.33725
1.08241
1.68227
1.69506
0.481906
0.58991
0.955839
0.622831
0.217084
0.401138
1.58136
1.55267
0.359868
0.7334
0.61603
1.05102
0.12496
1.78871
0.875258
0.538621
2.34964
0.41667
1.79539
0.650482
1.26754
0.979137
0.235816
0.917636
0.445378
1.60019
0.477853
1.46401
0.0649053
2.5563
1.2882
1.07339
0.187032
0.663912
0.442561
1.10828
0.277956
0.454638
0.59795
0.284501
0.752418
1.1454
0.248535
1.01811
1.68749
0.96799
0.695337
0.703065
2.39735
0.302379
2.0167
1.43631
1.34613
0.929002
1.51043
0.64253
1.00266
0.979887
1.11644
1.76213
1.91725
0.940249
0.996386
0.942996
1.18879
1.19744
0.686494
0.444471
0.793209
0.987014
0.983839
2.10247
1.1907
1.26332
1.40116
0.411472
0.762308
1.55594
1.21821
1.37719
1.26789
0.867226
2.3207
1.49983
1.7738
1.24056
0.301195
1.46211
0.80066
0.653137
2.20559
1.06419
0.53364
1.84352
0.892297
1.34461
0.587019
1.4253
1.03044
1.37401
0.626686
1.80296
1.32261
0.319502
1.2531
0.602396
1.46831
0.519049
0.0468593
0.933896
1.60499
1.07939
1.07186
1.67162
1.17338
0.709198
1.71849
0.979742
0.822677
0.563518
2.233
1.19552
0.81672
1.03095
2.03675
0.79938
1.85819
1.39971
0.942184
1.00553
1.09912
0.161092
0.492076
2.12292
1.16635
0.519966
1.00267
2.10555
0.805129
1.82783
1.10751
0.945507
0.425512
1.39678
0.126327
1.29163
0.855166
0.797045
0.107109
0.809551
0.548134
2.33581
0.273496
0.232523
0.904052
1.31816
0.502142
0.504562
0.958012
0.688035
1.63876
0.91726
0.898929
0.954794
0.961352
0.216054
1.05393
1.33853
0.107922
0.799739
0.516313
1.58971
1.38229
1.60811
0.950868
0.122065
0.102129
0.397253
0.79128
1.04761
1.49699
0.909588
2.37173
0.522282
2.33035
0.611597
0.598156
1.00313
0.801789
1.38472
1.696
1.93244
1.18533
1.57766
0.771502
0.945591
1.1224
0.595131
0.158815
1.27346
0.401804
0.514341
2.19378
0.636304
1.36858
1.68993
0.609707
1.54016
1.18867
0.444969
1.11459
0.812009
0.757667
1.19316
0.857742
0.167144
1.04823
1.75472
0.787054
0.951433
0.979284
0.142268
0.653165
1.5946
0.770488
0.716697
2.4839
0.637328
2.36737
0.225485
0.878926
0.908518
0.731001
2.11227
0.824975
0.81155
0.587102
0.872447
0.125856
2.16379
0.494231
1.26804
0.984082
1.38398
1.15764
0.812539
0.615583
1.29369
0.855014
2.59711
2.53716
0.785798
0.701426
0.0850794
0.624711
1.80839
0.612303
2.28232
0.203172
0.612159
0.944426
0.875147
2.587
0.707066
0.398818
0.59001
1.01544
0.563358
1.62355
1.33169
0.691597
0.142011
0.959398
1.28602
1.18915
1.97308
0.110857
0.698132
0.768183
0.167203
1.04841
1.24724
0.712067
1.37642
1.09026
1.86583
1.68025
1.14363
1.64467
0.662583
0.988026
0.0748942
0.896165
1.63385
0.00840905
1.88365
0.651696
0.0542298
1.14255
0.586775
0.69259
0.258102
1.65818
0.572571
1.11911
1.04442
0.766482
0.782439
0.434249
0.353035
1.05285
0.00841811
0.539433
0.514147
2.09117
1.46513
0.519001
2.03357
0.0119249
0.670963
0.534526
0.999921
1.87553
1.30386
0.443299
1.25449
0.205153
1.24744
0.0228359
0.858402
0.243842
1.61252
1.45023
0.930088
1.58181
3.16696
0.711062
0.620224
0.873346
1.01413
0.426977
1.35448
0.807041
0.150019
1.14007
1.1293
1.14303
1.17074
1.15628
1.22803
1.22533
1.23647
1.31583
1.32484
1.36665
1.4366
1.49392
1.47007
1.46502
1.21773
1.58629
1.48497
1.13814
1.17826
1.28388
1.26983
1.11079
0.958685
0.910531
0.892838
0.838176
0.883548
0.819051
0.637295
0.32568
0.348674
0.420243
0.616872
0.712462
0.268958
0.251043
0.0582272
0.198616
0.236576
0.0454098
0.431982
0.287918
0.225179
0.0462161
0.61736
0.790262
0.437624
0.223202
0.294727
0.0857278
0.441511
0.715224
0.519885
0.277939
0.539374
0.19372
0.62513
0.976453
0.079732
0.67575
0.624564
0.525529
0.496562
0.747528
0.166457
0.0531737
0.19262
0.50145
0.394205
0.183755
0.725967
0.359859
0.72692
0.724912
0.353671
0.435385
0.933172
0.0609887
0.300084
0.113921
1.70526
0.787805
1.19003
0.9492
1.20875
0.802526
0.176293
0.613262
0.223963
0.335686
0.982039
0.650559
1.04726
0.299585
0.491376
2.38997
1.5765
0.371474
2.21174
2.70473
0.452576
0.612293
2.04015
1.87935
0.911695
2.58208
0.385363
1.77267
2.18056
0.951109
1.32692
1.30171
0.732689
1.41548
1.21281
1.65392
1.12723
1.51429
0.799327
1.63101
1.25224
0.601534
0.547577
0.371844
0.352214
1.82177
1.24124
1.55539
0.643146
1.75332
0.544626
1.99024
0.296121
0.712823
0.282639
0.910572
1.74306
0.0333419
0.599556
0.988688
1.0113
1.18833
1.34887
0.24756
1.65303
0.568168
1.04934
1.56526
0.474749
2.08653
0.320417
1.48565
0.169866
0.432
1.3663
1.0945
0.649405
1.12902
1.01836
0.465483
0.150549
0.908487
0.361588
1.93625
0.665806
1.18296
1.04107
1.16775
1.18007
0.504259
0.81127
0.216285
0.54247
0.317039
1.32587
1.08701
0.595806
0.391597
0.398274
1.06789
1.51547
0.889739
1.5674
0.618357
1.49365
0.08818
1.19781
1.04851
0.214314
0.30963
0.135636
0.763371
1.01612
0.927136
0.555345
1.55083
1.90716
0.42817
0.578809
1.86661
1.19725
1.42282
0.351961
0.20907
2.32548
1.23109
1.30419
0.766471
1.05402
1.48426
0.737969
1.11447
0.362126
0.992335
1.02531
2.06513
2.19016
1.67284
0.0767169
0.142479
1.00994
1.23433
1.01055
0.934848
1.82144
0.950443
1.55273
1.32868
0.829025
0.674704
1.02701
0.258384
2.59583
0.0518187
1.10499
0.38834
0.301375
0.182423
1.39094
0.0120046
0.94936
1.54375
1.95162
0.532407
0.127664
2.17487
0.45975
1.35539
1.27349
1.6254
0.254007
1.54303
0.474668
1.28692
0.00328831
1.02652
1.57544
1.75932
0.409055
1.17281
1.44774
0.604339
1.3764
0.289439
0.0187713
0.122445
1.34763
1.02998
1.33685
1.18568
1.5285
0.434195
1.07131
1.49289
0.807928
1.51642
0.504521
0.453612
0.183751
0.556442
1.56325
0.647304
1.07501
0.690123
1.83943
0.883819
1.18658
1.72231
0.810768
1.41912
1.82138
1.02781
0.857867
1.17616
0.0222763
0.536912
1.27689
0.652753
1.74239
0.703291
1.79765
0.058735
1.12045
0.943559
1.11795
1.3604
1.43082
0.0507303
0.598112
0.788119
1.55249
1.63784
0.0229616
0.428125
0.773538
1.59133
0.656672
1.02629
0.613142
0.999656
0.984032
0.543608
1.10655
0.868776
1.02885
0.362356
0.804515
1.09172
0.354213
1.09568
0.30078
0.393652
1.14335
0.107415
1.24169
1.63469
0.79074
0.412808
0.130779
2.27757
0.122813
0.652486
0.793562
1.12579
0.814217
0.770993
0.753815
1.23857
0.532148
1.71961
1.43558
1.71909
0.839114
0.765472
0.028085
0.670941
0.809107
0.288761
1.95397
0.924148
0.231536
0.542333
0.551446
0.932145
0.815489
0.0822177
0.348316
1.7359
1.29869
1.58554
1.2495
0.691792
1.32535
2.43213
1.04308
0.574085
2.23946
0.802884
0.84757
0.923036
0.293553
0.892583
2.38829
0.898653
1.27558
0.95473
1.02916
0.19316
1.59149
1.13687
0.0459126
1.26768
1.08879
1.60262
1.20496
2.49443
1.79827
0.781906
0.396176
0.372569
0.895428
0.438541
1.06176
0.977742
0.664263
1.18822
1.03674
1.10722
1.32165
0.598161
1.057
0.280631
0.408395
1.79505
0.0887437
0.677261
2.63329
2.59181
0.837466
1.10657
1.8832
1.12426
0.818383
0.987884
0.940184
1.77028
1.50544
0.81984
0.715385
0.375741
0.931873
1.06785
0.969826
0.479614
1.52138
1.3812
1.82675
1.21205
1.44333
0.854032
0.282857
0.150546
1.49298
0.529948
0.850802
1.94888
1.69187
0.749458
1.18792
0.86598
0.99132
0.397498
0.817368
1.24541
0.092935
1.11162
1.38927
0.947228
2.31104
1.89076
0.246065
2.23167
1.12015
1.38519
2.03003
0.69738
1.91677
1.18664
1.60543
1.37654
0.504017
1.59841
0.764122
1.95557
0.925987
0.797538