/*--------------------------------*- C++ -*----------------------------------*\
| =========                 |                                                 |
| \\      /  F ield         | OpenFOAM: The Open Source CFD Toolbox           |
|  \\    /   O peration     | Version:  v2012                                 |
|   \\  /    A nd           | Website:  www.openfoam.com                      |
|    \\/     M anipulation  |                                                 |
\*---------------------------------------------------------------------------*/
FoamFile
{
    version     2.0;
    format      ascii;
    class       volScalarField;
    location    "350";
    object      aU;
}
// * * * * * * * * * * * * * * * * * * * * * * * * * * * * * * * * * * * * * //

dimensions      [0 0 0 0 0 0 0];


internalField   nonuniform List<scalar> 
65536
(
0.00036458
0.00102144
0.0016503
0.00240735
0.000477536
0.00135464
0.00184425
0.00150839
0.00162719
0.000698998
0.000270399
0.00160035
0.00186911
0.0016294
0.000228043
0.000143977
0.000449499
0.00106242
0.00268493
0.00206676
0.00153061
0.0013176
0.00131255
0.00197041
0.00391408
0.00308401
0.00279734
0.0036101
0.00229084
0.00124146
0.00384454
0.00446452
0.00219192
0.00284008
0.00517033
0.00377884
0.00289927
0.00278775
0.00153735
0.0023764
0.00363718
0.00256274
0.00163575
0.00597171
0.00688297
0.00469566
0.00163804
0.00763445
0.0103092
0.00867637
0.00698074
0.00453554
0.0147435
0.0148311
0.0117176
0.0136814
0.00878902
0.0210059
0.0207091
0.0169101
0.0179397
0.0121814
0.0230557
0.0181295
0.0136003
0.0150833
0.00494453
0.0230222
0.0295582
0.0271119
0.0260801
0.0244081
0.0318428
0.0249782
0.0268893
0.0221356
0.0189103
0.0350071
0.029839
0.0323314
0.0209548
0.035633
0.0407457
0.0271868
0.0335663
0.013369
0.0331296
0.0252234
0.0172133
0.0162157
0.0045837
0.0188138
0.0120064
0.00673717
0.00712577
0.00882215
0.0106584
0.00842576
0.00674499
0.00819573
0.00963101
0.00949251
0.00993009
0.0108468
0.0139782
0.0150624
0.015518
0.0157473
0.0129376
0.0111173
0.00810579
0.00493523
0.00351235
0.00186499
0.00132346
0.000714711
0.000478724
0.000711907
0.0011772
0.000901633
0.000753997
0.00104268
0.00075368
0.000494809
6.18832e-05
0.000400647
0.000409136
0.000220404
0.000664523
0.000298533
0.000281412
0.000824065
0.000934923
0.00107695
0.000719629
0.000660902
0.000549773
0.000967954
0.000382954
0.000121989
0.00020984
0.000369735
8.05062e-05
0.000393166
0.000485251
0.000590421
0.000398572
0.0001491
0.000137919
0.000345463
0.000551302
0.000423111
0.000178699
0.000441625
0.000694061
0.000930796
0.00081335
0.000516393
0.000476242
0.000148339
0.000366845
0.000301908
0.000377332
0.00046866
0.000374975
0.000804238
0.00120496
0.000454302
0.000790361
0.000626969
0.000588388
0.000334091
0.000100052
0.000276569
0.000144567
0.000303746
0.000231554
0.00069028
0.000540387
0.000930834
0.000485984
0.000644011
0.000404998
0.000543691
0.000322704
0.000114883
0.000589449
0.000697738
0.000642954
0.000580264
0.00069246
0.000676712
0.000674921
0.00074275
0.000408166
0.000354198
5.62105e-05
0.000686996
0.000842516
0.000755237
0.000614337
0.000661243
0.000271423
0.000316894
0.00078072
0.00103589
0.000784614
0.00068271
0.0010136
0.000580664
0.000193781
8.73121e-05
3.97254e-05
0.000423023
0.00070155
0.000824162
0.000257359
0.000923165
0.000669162
0.000459505
0.000740539
0.000350619
0.00047727
0.000158265
0.000332142
0.000632844
0.000553257
0.000578574
9.68395e-05
0.00024394
0.000270505
0.00050982
0.00114051
0.000914326
0.000732439
0.00048613
0.000273304
0.000757754
0.000408987
0.000470267
0.000395592
0.00079161
0.000551407
0.000654016
0.000960073
0.000845169
0.000951965
0.000313862
0.000597992
0.000692082
0.000554871
0.000726335
0.000436431
0.000715287
0.000770121
0.000791751
0.00066156
0.00050495
0.000128307
0.000564575
0.000495782
0.000756572
0.000625318
0.000529705
0.000132352
0.000334674
0.000261548
0.000506477
0.000119024
0.000576134
0.000312721
0.000766787
0.000819761
0.000516097
0.000131361
0.000109337
0.000173645
0.000423304
0.000699116
0.000425681
0.000681794
0.00017629
0.000484886
0.000697536
0.000677465
0.00066595
0.000753601
0.000524965
0.000792981
5.10261e-05
0.00051883
0.000660488
0.000807019
0.000485588
0.000319788
0.000317849
0.000588169
0.000303938
0.000669865
0.000397399
0.000292394
0.000397432
0.000608941
0.000380927
0.000949154
0.000767782
0.000576029
0.000266891
0.000168754
0.000152294
0.000156817
0.00048704
0.00108575
0.000215179
0.000632077
0.000337517
0.000963879
6.56259e-05
0.000497556
0.000624732
0.000639222
0.000587535
0.000462099
0.000534961
0.000416733
0.000357028
0.000350776
0.000453706
0.000294942
0.000518074
0.00109892
0.000818781
0.000144015
0.000729977
0.000261436
0.000471265
0.000520887
0.000479671
7.55437e-05
0.000387792
0.000302244
0.000686494
0.000481695
0.000212976
0.000467016
0.000833286
0.000444337
0.000728989
0.000377061
0.000326462
0.000553102
0.000387697
0.000437338
0.000227398
0.000293997
0.000477046
0.000593195
0.00099654
0.000875814
0.000565468
0.000360014
0.000121608
0.000109436
0.000150203
0.000273374
0.000350322
0.000412887
0.000165811
0.000420197
0.000465125
0.000310769
0.000447744
0.00049644
0.000701889
0.00025235
0.000383916
9.85888e-05
0.000262211
0.000502036
0.000847185
0.000606976
0.000688027
0.000354666
0.000749261
0.000744165
0.000565392
0.000205598
0.000615376
0.000573703
0.000483383
0.000561375
0.000461935
0.000615846
0.000328659
0.000194565
0.000166177
0.000319106
0.000274438
0.000729451
0.000496376
0.00056562
0.000240286
0.000612759
0.000550145
0.000874898
0.000766516
0.000230937
0.000418311
0.000309454
0.000336069
0.000468744
0.000124873
0.000400124
0.000480397
0.000756339
0.000703035
0.000253838
0.000436357
0.000399584
0.000596066
0.000481307
3.22354e-05
0.000398704
0.000545316
0.000268183
0.000523034
0.000446985
0.000767433
0.000789482
0.000597264
0.000726246
0.000849194
0.000933671
0.000171232
0.000898474
0.000411289
0.000264851
0.000471177
0.000281535
0.000544313
0.000219551
0.000712407
0.000647336
0.00024103
0.00034197
0.000277889
0.00071104
0.000641508
0.000871761
0.000163777
0.000530653
0.000775095
0.000850803
0.00109467
0.000552196
0.000246635
0.000388789
0.000650011
0.00102392
0.000505779
8.12365e-05
0.000146652
0.000579086
0.000622442
0.000300624
0.000785033
0.000624267
0.000372403
0.000250198
0.000457055
0.000454456
0.00050749
0.000307916
0.000439983
0.000565924
0.000297591
0.000528675
0.000385426
0.000260218
0.000245164
0.000872063
0.00105307
0.000351208
0.000307126
0.000761279
0.000667755
0.00013546
0.000217017
0.000581105
0.000909107
0.000437528
0.000624244
0.000989496
0.000535237
0.000366885
0.00035157
0.000579279
0.000599079
0.000691512
0.000414689
0.000659469
0.000640332
0.000798702
0.000832324
0.000805542
0.000374228
0.00104511
0.00062441
0.000480452
0.000212354
0.00034075
0.00056964
0.000327247
0.000454316
0.00235451
0.00154583
0.00196949
0.00131362
0.000118696
0.00122676
0.00145984
0.0013491
0.00111685
0.00165105
0.00061103
0.00141517
0.00143551
0.000201783
0.000490541
0.00123938
0.000814382
0.00134389
0.000320506
0.000784783
0.0019905
0.00201613
0.00113913
0.000627526
0.000979711
0.00142998
0.00254107
0.00218857
0.00342277
0.00252426
0.00303651
0.00316815
0.00160143
0.00272385
0.000687649
0.00191615
0.00279745
0.0024897
0.000696029
0.00135053
0.00308586
0.00315484
0.00228881
0.00227701
0.00405386
0.0048747
0.00161724
0.00590814
0.005781
0.00968527
0.00481406
0.00932062
0.0120411
0.00672371
0.0180622
0.0104001
0.015238
0.0189079
0.0102887
0.0259123
0.00975815
0.0185033
0.016117
0.0135351
0.0294481
0.0170747
0.00563932
0.0213339
0.0208945
0.0176813
0.0142786
0.0133261
0.0105905
0.0165735
0.0232677
0.00916832
0.015245
0.0167911
0.00957361
0.0191502
0.0110481
0.028104
0.0197398
0.0370814
0.0055514
0.0292608
0.0158751
0.0196216
0.0228056
0.00877836
0.0145617
0.00440554
0.0172004
0.0132168
0.00532715
0.00355218
0.000779926
0.000835217
0.00169205
0.00282723
0.00260086
0.00321781
0.0044304
0.00402906
0.00448715
0.00445481
0.00430922
0.00424738
0.00435812
0.00306156
0.00211064
0.00135008
0.000770763
0.000515924
0.000248671
0.000504511
0.000950195
0.000552011
0.00119646
0.000510892
0.000911546
0.000351714
4.7696e-05
0.000241997
0.000363911
0.000157901
9.35849e-05
0.000526127
0.000436639
0.000569643
0.000365084
0.000871092
0.000372145
0.000812141
0.000541442
0.000490705
0.000605586
0.000156439
0.000134938
0.000297421
2.41014e-05
0.000258679
0.000164948
0.000279729
0.000402867
0.000569912
0.000268799
0.000271822
0.000459979
0.000331642
0.000438774
0.000369933
0.000629705
0.000446461
0.000700809
0.000721052
0.000225994
0.000657486
0.000215815
0.000467999
0.000353735
0.000272931
0.000721751
0.000830873
0.000426343
0.000450014
0.000536567
0.000790743
0.000359436
0.000376569
0.000173003
0.000337312
0.000452717
0.000297111
0.000322644
0.000216523
0.00107433
0.000368195
0.00101046
0.000388588
0.00063839
0.000803016
0.000462776
0.00021746
0.000345707
0.000605783
0.00022907
0.00051242
0.000740626
0.000760102
0.000185702
0.000471733
0.000316053
0.000749997
0.000654483
0.000250497
0.000888901
0.000358905
0.000663541
0.000233779
0.000324701
0.000584299
0.000590319
0.000562004
0.000617105
0.000733749
0.000325295
0.000423955
0.000703455
0.000487715
0.000826261
0.000233073
0.000534584
0.000399524
0.00133452
0.000732996
0.000323324
0.00081461
0.000437284
0.000373522
0.000271976
0.00027319
0.000539949
0.000859348
0.000844376
0.000554958
0.000859887
0.000780775
0.000496358
0.000799461
0.000341445
0.00102462
0.000493349
0.000770083
0.000261207
0.000168238
0.000631382
0.000127424
0.00104911
0.000469315
0.000529842
0.000365533
0.000500653
0.00151913
0.00015582
0.00140059
0.000492787
0.000301052
0.000848035
0.000253275
0.000839744
0.000577464
0.00108177
0.000504856
0.000670917
0.000256447
0.000966101
0.000530252
0.000911917
0.000333645
0.000681214
0.000426277
0.000834136
0.000156476
0.000414989
0.000823927
0.000965554
0.000227212
0.000793281
0.000419216
0.000704928
0.000249514
0.000532588
0.000792968
0.000475165
6.49563e-05
0.000608941
0.00107545
0.000545545
0.000727203
0.00043842
0.000582938
0.000590008
0.000258316
0.000693656
0.00105758
0.000401541
0.00131612
0.000617095
0.000532764
0.000905843
0.000219533
0.000592861
0.000845669
0.00024115
5.07422e-05
0.000153062
0.000369048
0.000643283
0.00034126
0.000587967
0.000191338
0.000487678
0.000992452
0.000227278
0.000145614
0.0003958
0.000270495
0.000203424
0.000949991
0.000582014
0.00138727
0.00041602
0.000235532
0.000230449
0.00117642
0.000681354
0.00103976
0.000813513
0.000645692
0.000473511
0.000930967
0.000847571
0.000163424
0.000438826
0.000626955
0.00102917
0.0011433
0.000574741
0.00123664
0.000879576
0.000530071
0.000248789
0.000379942
0.000940949
0.000288227
0.00057829
0.000619199
0.000737148
7.59289e-05
0.000572478
0.000825417
0.00104748
0.000473669
0.00158686
0.00036992
0.000334711
0.000422593
7.43536e-05
0.000556679
0.000446667
0.000258909
0.000522598
0.000550502
0.000785553
0.000982024
0.00035037
0.000143323
0.000507405
0.000730829
0.000238195
0.000450554
0.000131014
0.000102602
0.00034643
0.000552771
3.7313e-05
0.0004708
0.000761515
0.0010119
0.000951409
0.000478797
0.000183606
0.000106119
0.000296783
0.000179094
0.000848947
0.000147746
0.00106948
9.90077e-05
0.000524037
0.000652474
0.000562442
0.000207069
0.000784194
0.000301842
0.00023052
0.000467739
0.000432022
0.000922284
0.00121501
0.000618543
0.000148307
0.000580649
0.000433073
0.00036816
0.000189472
0.000605233
0.000139511
0.000390958
0.000528036
0.000817085
0.000294726
0.000715391
0.0009857
0.000374573
0.000614829
0.000701655
0.0011318
0.00069076
0.000727567
0.000229987
0.00054794
0.000588003
0.000661531
0.000304011
0.000371116
0.000177319
0.000135718
0.000766456
0.00042091
0.000308126
0.00025156
0.000614999
0.000726586
0.00062607
0.000712498
0.000122738
9.6879e-05
0.000463272
0.000433961
0.000487796
0.000980882
0.000781305
0.000353878
0.000855695
0.00105053
0.000303221
0.000878037
7.14715e-05
0.00044979
0.000390171
0.000211458
0.000350274
0.000138087
0.000618331
0.000535477
0.000248371
0.000307382
0.000402552
0.000818702
0.000658827
0.000309931
0.000165655
0.000337922
0.000937742
0.000441087
0.000699935
0.000418195
0.000271723
0.000848145
0.000836289
0.000566216
0.000414029
0.000756431
0.000126988
0.000196021
0.000276423
0.000860701
0.000607837
0.000240867
0.000483248
0.000753251
0.000437209
0.000260753
8.91337e-05
0.0014384
0.00105954
0.000499165
0.00146274
0.00118579
0.00153077
0.000641086
0.000554323
0.000536777
0.000350164
0.000679341
0.000786552
0.00125118
0.00117239
0.000657226
0.000883204
0.000512307
0.000553092
0.00024113
0.000776444
0.000203123
0.000843539
0.000397181
0.000851489
0.00109435
0.000947138
0.000818951
0.000721721
0.000860519
0.000903846
0.00013891
0.000545531
0.000752356
0.00134605
0.000277468
0.00140138
0.000430488
0.000163505
0.000459168
0.00218564
0.000836352
0.00110388
0.000132088
0.000854387
0.00256608
0.00205925
0.00121976
0.00175484
0.000591021
0.00295519
0.00285728
0.00174598
0.00179251
0.000481146
0.00111518
0.00209191
0.00140255
0.000490235
0.00154438
0.00200698
0.00160768
0.00198891
0.00115593
0.00170178
0.00206911
0.00273108
0.00165297
0.00131864
0.00154407
0.000419687
0.00175433
0.00253307
0.00186247
0.0011983
0.00238392
0.00135082
0.00210035
0.00285806
0.0041605
0.00101377
0.00258111
0.00144065
0.000713332
0.00147668
0.000570654
0.00458498
0.00915299
0.00583053
0.00309304
0.00703663
0.00201888
0.00949679
0.0112456
0.00512936
0.019122
0.0100146
0.0146624
0.0174033
0.009915
0.0228955
0.00374539
0.0178601
0.0232331
0.0129831
0.00960759
0.0160494
0.00191003
0.0133298
0.00764065
0.00621168
0.0174735
0.016745
0.0148165
0.0361334
0.00959129
0.0325559
0.0253062
0.0174579
0.0170169
0.0120926
0.0294223
0.00992109
0.025285
0.0220542
0.0143908
0.0138281
0.0196777
0.021347
0.00662892
0.00818762
0.00820047
0.00634932
0.00459303
0.0050362
0.00416335
0.00192978
0.000988121
0.00340486
0.00429714
0.00301027
0.00250294
0.00300677
0.00374753
0.00399528
0.00483802
0.00318329
0.00198809
0.00114881
0.000619467
0.000464504
0.000439137
0.000156214
0.000906478
0.000542578
0.000445144
0.00113051
0.000924591
0.000335018
0.000259519
0.000477586
0.000256777
0.000210593
0.00053266
0.000587149
7.1304e-05
0.000316606
0.000541881
0.000220489
0.000616106
0.000469214
0.000657528
0.000238717
0.000616891
0.00016108
0.000219144
0.000239819
0.000102081
0.00031773
0.000308151
0.000530829
0.00048891
0.000849028
0.000350691
4.12989e-05
0.000698896
0.000308844
0.00072702
0.000466529
0.000612214
6.6698e-05
0.000853993
0.000263396
0.000329383
0.000637769
0.000470405
0.00011489
0.000122726
0.000823522
0.000968255
0.000709777
0.000510358
0.000642473
0.000401033
0.000697971
0.000367464
0.000199216
0.00052366
0.000731655
0.000942604
0.000856196
0.000344391
0.00098493
0.000994017
0.0011995
0.000586394
0.000864766
0.00103505
0.000704436
0.000580809
0.000261798
0.000512153
0.000946518
0.000122601
0.000386616
0.000750349
0.000914114
0.000369871
0.000496446
0.000866834
0.000801092
0.000740188
0.000654301
0.000240845
0.000845826
0.000749443
0.000509517
0.000780486
0.00105279
0.000427865
0.000303475
0.000512944
0.000284232
0.000537706
0.000488396
0.000615945
0.000275852
0.000518683
0.000914069
0.000347415
0.00108896
0.00119063
0.00133198
0.000572898
0.000670268
0.000356919
0.000759718
0.0004133
0.000727395
0.000666716
0.000956015
0.00131448
0.0012763
0.000673606
0.00125821
0.000784115
0.0011932
0.00043116
0.000607032
0.000817942
0.00081895
0.000891441
0.000797052
0.000725859
0.000919388
0.00104443
0.00138306
0.000710656
0.000722196
0.000900725
0.00137832
0.00194386
0.00106793
0.0011121
0.000655266
0.000984532
0.000956863
0.000837895
0.0012592
0.000529876
0.00115633
0.000395673
0.000725209
0.00106679
0.00144422
0.000845122
0.000938455
0.000701644
0.000910327
0.00074547
0.000780352
0.000701346
0.00136493
0.00111244
0.00131838
0.000416009
0.000730378
0.000342777
0.00064891
0.00103661
0.000663637
0.000745725
0.000634149
0.000759646
0.000988993
0.00132951
0.000757231
0.000919503
8.74691e-05
0.000362985
0.000743125
0.000898613
0.000656774
0.00159691
0.0010575
0.000908633
0.000970487
0.000798954
0.00101614
0.000735763
0.00130253
0.000751119
0.000126589
0.000318576
0.00060844
0.000476103
0.000376064
0.000984071
0.000630831
0.00122311
0.000869001
0.000727695
0.000210103
0.000746447
0.000409392
0.000679884
0.00109291
0.00109595
0.00107145
0.00111272
8.08352e-05
0.0010749
0.00126975
0.00165951
0.00114231
0.000659927
0.00088585
0.0013044
0.00117827
0.00103502
0.000841788
0.000647794
0.00052619
0.000119095
0.00156493
0.00159263
0.00153661
0.000569801
0.000804246
0.000464526
0.000500494
0.000756
0.000836462
0.000918232
0.000622121
0.000794715
0.00077044
0.000590602
0.000710048
0.00079214
0.00170578
0.0010566
0.00129756
0.000468434
0.000471728
0.000462552
0.000406396
0.000555727
0.000760734
0.000608301
0.000712224
0.00117673
0.000862039
0.000680472
0.000326448
0.000319515
0.000706388
0.000222517
0.00016963
0.000244587
0.000359003
0.000340252
0.000404782
0.0006451
0.000430117
0.000801207
0.0013965
0.000953841
0.000775948
0.000280237
8.70324e-05
0.000152638
0.00101312
0.000883082
0.000769162
0.000847826
0.000756016
0.000542133
0.00056203
0.000724035
0.000968375
0.00100617
0.000972346
0.000302062
0.000158812
0.000709073
0.00115033
0.00106171
0.00104881
0.000256098
0.000874807
0.000806152
0.000441524
0.000692604
0.000588753
0.000705345
0.000721891
0.00111933
0.00106897
0.000884289
0.00111859
0.00102938
0.000243111
0.000967653
0.00154771
0.00145932
0.000734201
0.000937963
0.000738596
0.000583742
0.000429413
0.000747019
0.000420175
0.000186018
0.000508457
0.00034914
0.000291117
0.000457362
0.000786484
0.000799577
0.000396103
0.000651782
0.000788767
0.000386533
0.00061118
0.00038869
0.000259865
0.000493927
0.00115439
0.00140356
0.0012419
0.00118044
0.00134038
0.00133357
0.000614968
0.00052747
0.000567088
0.000248129
0.00025775
0.000513049
0.000355881
0.000487168
0.000390091
0.000533232
0.000450799
0.000169633
0.000779486
0.000609193
0.000241529
0.000238801
0.000387764
0.000353474
0.000802258
0.00108705
0.000817592
0.00107284
0.00100173
0.000886358
0.00106122
0.00114346
0.000182955
0.000534598
0.000683724
0.000425168
0.000224584
0.000825436
0.000435131
0.000848194
0.000442542
0.000547841
0.000937847
0.000343399
0.000883199
0.00211706
0.00148914
0.00112365
0.0022516
0.00263679
0.00186278
0.00065929
0.000928758
0.00074301
0.000131214
0.000542125
0.00108113
0.00152301
0.00208798
0.00108755
0.000991663
0.000319422
0.000301799
0.000353314
0.000702439
0.00104209
0.000665896
0.000168019
0.00110363
0.000944175
0.000855627
0.000448843
0.0014433
0.0012862
0.00132848
0.000886271
0.000525483
0.00170965
0.00269179
0.000444896
0.000755368
0.000988703
0.00117056
0.00106469
0.00183932
0.000859255
0.00117266
0.000538999
0.000766709
0.00200087
0.00121529
0.003553
0.0018115
0.00278579
0.00242565
0.00107377
0.0013819
0.00110887
0.00228134
0.000825247
0.00206111
0.00273719
0.00268187
0.000715673
0.000565339
0.000474362
0.00177486
0.00258858
0.00355356
0.00338474
0.00321145
0.00199958
0.00172079
0.00288683
0.00317432
0.00267215
0.0017815
0.00311867
0.0041042
0.00253494
0.000892536
0.00127897
0.00274249
0.00425464
0.00515029
0.00485236
0.00370697
0.00179857
0.00546125
0.00811365
0.00372119
0.0046281
0.00507362
0.00231562
0.00189148
0.00189465
0.0038082
0.000661989
0.00521207
0.00521734
0.0135415
0.0188915
0.00444595
0.0131924
0.00607487
0.0174204
0.0181397
0.0061643
0.0103965
0.0115551
0.00556014
0.0165174
0.0150377
0.00887061
0.02798
0.0271383
0.0165758
0.0529431
0.0203551
0.0381127
0.0415407
0.0123894
0.0326543
0.0249088
0.0132571
0.0030713
0.0170447
0.0165758
0.00798707
0.00166572
0.00715309
0.00785218
0.0106613
0.00975732
0.00183492
0.00558292
0.00546052
0.00307024
0.000463524
0.0018028
0.00121303
0.00290266
0.00538462
0.00342085
0.00200424
0.0012206
0.00216939
0.00375579
0.00392345
0.00415956
0.00282868
0.00164246
0.000826773
0.000592035
0.000268034
0.000584447
0.000323756
0.000520149
0.000718339
0.000600862
0.00103095
0.000654951
0.000657175
0.000505599
0.000485279
7.52988e-05
0.000375804
0.000679604
0.000508104
0.000498972
0.000332864
0.000154467
0.000308247
0.000584769
0.000628891
0.00025242
0.000356532
0.000735734
6.60231e-05
0.000218814
0.000159813
5.43242e-05
0.000183111
0.000102092
0.000389224
0.000996496
0.000841799
0.000971279
0.000664338
0.000596597
0.000469765
0.0010532
0.000731904
0.000232489
0.000599599
0.000582988
0.000323764
0.000632254
0.000720931
0.00102859
0.000739466
0.000574522
0.00107595
0.000949831
0.000602033
0.000846872
0.000600512
0.000745206
0.00107578
0.00107449
0.000237713
0.000874423
0.000762607
0.0019354
0.000847655
0.000939057
0.000861405
0.000399965
0.00140161
0.00061692
0.000650025
0.00102638
0.000236063
0.000446723
0.000640957
0.000936747
0.000771214
0.000454872
0.000282375
0.000844423
0.00119233
0.00054444
0.000911297
0.00100013
0.00040335
0.00113911
0.000393616
0.000216702
0.000809127
0.000775943
0.00166566
0.0016932
0.000982065
0.00072153
0.000570521
0.000293709
0.000113001
0.000687187
0.000758603
0.000442002
0.000644329
0.000588929
0.000751175
0.00172847
0.00184569
0.00173202
0.0010807
0.00122596
0.00125404
0.000706071
0.000675709
0.00109048
0.00107635
0.000983502
0.00119226
0.00123021
0.0016031
0.000524388
0.00130656
0.00200881
0.00208005
0.000973735
0.000980844
0.00109509
0.000724819
0.00193757
0.00114115
0.00132311
0.00144244
0.000707929
0.00221858
0.000536702
0.00117735
0.00174639
0.000297982
0.00260923
0.00045191
0.00111595
0.00127516
0.000986645
0.00152435
0.000557105
0.0017488
0.00110323
0.00141089
0.00147064
0.00156588
0.000754333
0.0022876
0.0014504
0.00131738
0.000654318
0.00121647
0.000267973
0.000782582
0.00167684
0.000903598
0.0024497
0.00129809
0.0011323
0.000802395
0.000400599
0.000735881
0.00120519
0.000293115
0.0010087
0.000605041
0.000780625
0.000699337
0.00148191
0.000378774
0.00117293
0.000321402
0.00034909
0.000967808
0.000567276
0.00147345
0.00124018
0.000988545
0.00115192
0.00122767
0.000386197
0.00142625
0.00145921
0.00108095
0.00159347
0.000329371
0.000539993
0.000716809
0.000922294
0.00125643
0.00108551
0.000585181
0.000411626
0.00250424
0.000982294
8.97933e-05
0.000461703
0.00151134
0.00108381
0.00223236
0.000868741
0.00168431
0.00142349
0.000658728
0.0015203
0.000850323
0.0027809
0.000405114
0.000923957
0.000914396
0.00174613
0.00111741
0.0012159
0.00106876
0.000469469
0.000512111
0.000608508
0.00122991
0.00240855
0.000670634
0.00123191
0.00103776
0.000554043
0.000394598
0.000805367
0.00122155
0.000878649
0.000579051
0.000955637
0.00105803
0.000489017
0.000225318
0.00102845
0.0016363
0.000258443
0.00174207
0.000633941
0.00125267
0.000528668
0.000234501
0.000345244
0.000832589
0.00151791
0.000626784
0.00142652
0.00146576
0.000551849
0.000312879
0.00034013
0.00067996
0.000472337
0.000115517
0.000299491
0.000576526
0.000121431
0.000207478
0.000591517
0.0004241
0.000840925
0.00139331
0.00103498
0.000737694
0.00023708
0.000301359
0.000483711
0.000912076
0.00204655
0.00119034
0.00161798
0.000392907
0.000866515
0.000589605
0.00102228
0.00140784
0.00174305
0.000987235
0.00129385
0.000496828
0.000444435
0.000938108
0.000387503
0.00159255
0.00110055
0.000680621
0.00136543
0.000367271
0.00115947
0.00048176
0.00137986
0.00108595
0.000887893
0.00269226
0.00105504
0.00252451
0.000932281
0.000608227
0.000972191
0.00297471
0.000827446
0.000952325
0.000968193
0.00110014
0.000473895
0.000124018
0.00111769
0.000204609
0.000652536
0.000548901
0.000754052
0.000834772
0.00117114
0.000840337
0.00109772
0.000631737
0.000840493
0.00072745
0.000429394
0.000171845
0.000665425
0.000699245
0.00148594
0.00157976
0.00107324
0.00285082
0.00137935
0.000732293
0.0017637
0.000604959
0.00106586
0.000503039
0.000720086
0.000587144
0.000513536
0.000665874
0.000574705
0.000319846
0.000241868
0.000940826
0.00039952
0.000545723
0.000636136
0.000697908
5.74384e-05
0.000161789
0.000308883
0.000808309
0.00196596
0.00192681
0.00142101
0.00223316
0.000572623
0.00157581
0.00107122
0.000389122
0.000456282
0.000964702
0.000448889
0.00080142
0.00126027
0.000496185
0.000579717
0.000409029
0.000566815
0.0009588
0.00028883
0.00168257
0.00166846
0.0033464
0.0023978
0.000633602
0.0046868
0.00103898
0.000920594
0.00051764
0.000842851
0.000642628
0.00050042
0.00175434
0.00104195
0.00359628
0.000594473
0.00150799
0.00106992
0.00108698
0.00120556
0.00122759
0.00183589
0.000702057
0.000612881
0.000667961
0.00101579
0.000536667
1.32242e-05
0.00222373
0.000851218
0.00263216
0.000776773
0.00234557
0.00241331
0.00394376
7.22377e-05
0.000474384
0.000965739
0.00100848
0.00109168
0.00130095
0.000618208
0.00086121
0.000913304
1.19575e-05
0.00128313
0.00102934
0.00177083
0.00172507
0.00184048
0.00137183
0.0021277
0.00276462
0.00125205
0.000698378
0.000866276
0.00139678
0.00151113
0.00291245
0.00196127
0.000920353
0.00134901
0.00124203
0.000624354
0.000825226
0.00138073
0.0005117
0.000588285
0.00166263
0.00307659
0.00189504
0.00363717
0.00263487
0.00446405
0.00138158
0.0014562
0.00237077
0.00147336
0.00370456
0.00414837
0.00178201
0.0043358
0.00505942
0.00691241
0.00747756
0.00220443
0.00328226
0.00330012
0.00105743
0.00351543
0.00511859
0.00922082
0.00732992
0.00223045
0.00655959
0.00329519
0.0148809
0.0087736
0.0125328
0.0116656
0.00855549
0.0141403
0.0021903
0.0134679
0.0102057
0.00726778
0.0216044
0.0165087
0.0154174
0.0314042
0.0142507
0.0289079
0.0435295
0.0144047
0.0390635
0.0297175
0.0201879
0.0347972
0.0122753
0.0169969
0.00987182
0.0154037
0.0100362
0.0151277
0.00905051
0.0103867
0.00813101
0.00774667
0.00812704
0.00582757
0.00702641
0.00443956
0.00743531
0.0069791
0.0019152
0.00547297
0.00474835
0.00328099
0.00387754
0.00211471
0.00133454
0.00159586
0.00354681
0.00452949
0.00507335
0.00437013
0.00290481
0.00157578
0.000991513
0.000671056
0.000568148
0.000624003
0.000686639
0.000179315
0.000345276
0.00119198
0.000720459
0.000523471
0.00084138
0.000908265
0.000330835
0.000271541
0.000484113
0.00107055
0.00024834
0.000917515
0.000637521
0.000792717
0.000120682
0.000541741
0.000665105
0.000205284
0.00036163
0.000710793
0.000171999
2.16566e-05
0.000182051
0.000114003
0.000327363
0.000766079
0.000681031
0.0014695
0.000868537
0.00152868
0.00101293
0.00103736
0.000452533
0.00134895
0.000920467
0.000730071
0.000597954
0.000540085
0.000574375
0.00112198
0.000863649
0.00155295
0.00120466
0.00105946
0.0009578
0.00133976
0.00100586
0.00109365
0.00119102
0.00149878
0.0017045
0.00108977
0.000300531
0.0010974
0.000980236
0.00226036
0.000847389
0.00107012
0.000826435
0.000256902
0.00129568
0.000622334
0.000522945
0.000869347
0.00107782
0.000322973
0.000703996
0.00144516
0.000333065
0.000825919
0.000745397
0.00139928
0.00135205
0.00123581
0.00088591
0.00145556
0.000101501
0.00108022
0.000784583
0.000920066
0.00120208
0.000969205
0.00183877
0.00192115
0.000783203
0.00112693
0.00046085
0.000542993
0.000348539
0.000837848
0.000252044
0.00104773
0.000513893
0.000808145
0.00144653
0.00248042
0.00122002
0.00243971
0.000321188
0.00117124
0.00225146
0.000810823
0.00110941
0.00144245
0.00114014
0.00107666
0.00108439
0.0014766
0.00192029
0.000303765
0.00148789
0.00316399
0.00123347
0.00209294
0.00109989
0.000988483
0.000813
0.00193893
0.00143539
0.00121847
0.00163409
0.000510185
0.00243606
0.000464896
0.00164327
0.0013317
0.00144034
0.00200252
0.00153972
0.00067296
0.00168507
0.000279382
0.00245025
0.000747737
0.00197705
0.00191525
0.000970879
0.00219928
0.00154293
0.000807624
0.00225267
0.00182031
0.00143867
0.000728004
0.000978907
0.000470943
0.000268523
0.00210798
0.0011488
0.0027578
0.00105751
0.00162695
0.000359108
0.000493365
0.00112157
0.000854882
0.00119873
0.000817609
0.000533523
0.000752183
0.000493559
0.0015548
0.000387013
0.00123234
0.000774153
0.000330025
0.0010213
0.000891697
0.00147636
0.000794978
0.00139124
0.00124188
0.00190684
0.00055166
0.00166433
0.00203494
0.000972022
0.00202891
0.000980734
0.0013236
0.000147896
0.00171677
0.0022264
0.000421533
0.00128674
0.00272243
0.00231891
0.000738219
0.000392807
0.000820736
0.00151456
0.00161444
0.00242136
0.00136185
0.00168879
0.00226995
0.00118593
0.00157477
0.00162448
0.00241995
0.00171966
0.000680328
0.000777354
0.00197285
0.00121788
0.00127311
0.000842204
0.00112129
0.000557832
5.12943e-05
0.000998344
0.00207254
0.00175214
0.000371195
0.000764748
0.000776208
0.000728794
0.00136207
0.00164139
0.00125625
0.000389445
0.00139347
0.00139634
0.00116256
0.000181037
0.00140755
0.00136456
0.000600778
0.00199718
0.000649388
0.00157938
0.000379367
0.000277563
0.000627243
0.00200074
0.000910922
0.00159857
0.0011057
0.00222698
5.53267e-05
0.000787584
0.000373233
0.00101447
0.000548594
0.00055014
0.000738139
0.00052557
0.000320449
0.000451627
0.000582603
0.000535251
0.00126184
0.00131786
0.00114455
0.000924872
0.000496864
0.000140275
0.00026078
0.0016692
0.00224476
0.000371276
0.00224804
0.000167132
0.0010272
0.00116252
0.00127761
0.00158766
0.00199447
0.00131812
0.00121736
0.000542619
0.000456913
0.0011362
0.000436874
0.00185333
0.00158366
0.00079108
0.00177595
0.000505031
0.00127026
0.00166641
0.0016971
0.0016518
0.00208701
0.00243613
0.00148055
0.00299256
7.67415e-05
0.000523062
0.000334163
0.0030265
0.00283168
0.000495131
0.000787378
0.00106795
0.000384756
0.0012277
0.000740297
0.000577264
0.000813978
0.000818357
0.000791895
0.00144361
0.000982065
0.00140091
0.00100199
0.000752122
0.00116825
0.000567606
0.000862875
0.000344617
0.000259027
0.00142631
0.00148092
0.00116256
0.00239041
0.00214107
0.00172769
0.00108194
0.00240447
0.00120274
0.0013542
0.000946677
0.000399075
0.00117133
0.000895806
0.00081326
0.000410386
0.000562842
0.000317227
0.00081544
0.00051657
0.00162917
0.000544324
0.000433304
0.000419895
0.000911349
0.000833397
0.00107511
0.0023473
0.00259803
0.00146202
0.00264763
0.000240799
0.00187644
0.00150837
0.000588142
0.000147375
0.000636866
0.000860426
0.00155305
0.00154554
0.00102228
0.00102861
0.000229008
0.00026827
0.00109331
0.000266472
0.00209559
0.00139032
0.00342123
0.00234323
0.00316478
0.00430917
0.00129515
0.00135386
0.00131336
0.000561359
0.00127245
0.00156626
0.0023126
0.00188248
0.00318595
0.0024177
0.001183
0.00167936
0.000967397
0.00154227
0.00230491