/*--------------------------------*- C++ -*----------------------------------*\
| =========                 |                                                 |
| \\      /  F ield         | OpenFOAM: The Open Source CFD Toolbox           |
|  \\    /   O peration     | Version:  v2012                                 |
|   \\  /    A nd           | Website:  www.openfoam.com                      |
|    \\/     M anipulation  |                                                 |
\*---------------------------------------------------------------------------*/
FoamFile
{
    version     2.0;
    format      ascii;
    class       volScalarField;
    location    "350";
    object      he_filtered;
}
// * * * * * * * * * * * * * * * * * * * * * * * * * * * * * * * * * * * * * //

dimensions      [0 2 -2 0 0 0 0];


internalField   nonuniform List<scalar> 
65536
(
-6658.7
-6655.64
-6659.29
-6659.07
-6661.44
-6665.47
-6664.45
-6666.5
-6669.9
-6673.1
-6676.87
-6678.59
-6679.12
-6680.82
-6683.04
-6684.88
-6685.63
-6686.8
-6687.91
-6689.2
-6690.77
-6692.37
-6694.28
-6696.95
-6700.12
-6703.78
-6707.8
-6712.04
-6716.72
-6722.13
-6728.06
-6734.33
-6741.21
-6748.35
-6755.6
-6763.47
-6771.97
-6780.62
-6789.43
-6798.54
-6807.98
-6818.07
-6829
-6840.6
-6852.99
-6866.92
-6882.39
-6898.27
-6914.06
-6930.2
-6947.8
-6965.05
-6980.45
-6993.84
-7009.53
-7027.94
-7044.31
-7057.05
-7060.16
-7071.96
-7092.48
-7105.38
-7102.31
-7064.96
-7035.17
-7019.49
-7005.67
-7003.17
-6989.6
-6980.83
-6992.04
-6984.33
-7017.64
-7071.22
-7121.85
-7160.74
-7107.91
-7058.68
-7047.83
-7089.14
-7219.88
-7273.09
-7226.91
-7153.93
-7173.67
-7308.19
-7380.88
-7412.3
-7415.86
-7321.44
-7177.93
-7164.5
-7158.46
-7105.87
-7013.2
-6881.83
-6710.33
-6501.41
-6258.23
-5978.57
-5655.66
-5280.98
-4853.36
-4372.56
-3843.42
-3276.42
-2691.27
-2112.6
-1558.36
-1043.1
-577.965
-170.262
174.598
453.662
667.765
819.363
922.083
989.377
1031.92
1056.67
1068.27
1075.34
1074.89
1076.3
1077.42
1079.34
1084.08
1086.99
1089.46
1091.82
1093.01
1093.22
1093.8
1093.85
1093.31
1091.18
1088.57
1082.88
1074.64
1067.12
1060.45
1058.06
1057.27
1058.27
1062.14
1067.45
1069.65
1071.6
1071.22
1070.29
1069.99
1071.02
1075.09
1077.23
1081.64
1087.32
1091.08
1095.62
1099.67
1101.84
1103.57
1103.64
1103.72
1103.04
1102.39
1101.63
1100.95
1103.27
1104.28
1105.59
1106.41
1105
1102.22
1097.52
1091.45
1088.34
1082.41
1078.86
1076.19
1074.93
1075
1075.47
1079.6
1085.21
1089.26
1092.16
1093.57
1094.68
1095.8
1094.7
1095.77
1096.7
1098.26
1101.71
1102.24
1103.35
1105.15
1105.56
1106.5
1105.79
1103.31
1100.28
1098.3
1096.39
1095.4
1094.43
1090.97
1088.1
1084.92
1082.55
1079.93
1077.93
1079.54
1079.32
1080.22
1080.65
1079.19
1078.58
1078.98
1076.36
1075.09
1075.72
1077.71
1077
1079.09
1082.49
1083.43
1085.52
1087.79
1090.23
1091.19
1093.02
1092.41
1093.11
1092.33
1090.55
1089.5
1088.48
1086.33
1083.89
1082.4
1080.58
1080.61
1080.78
1082.16
1083.01
1084.1
1083.4
1085.2
1086.38
1089.58
1095.88
1100.96
1104.58
1107.32
1108.45
1108.66
1108.21
1104.12
1100.41
1094.73
1087.65
1081.67
1078.02
1071.88
1069.86
1070.23
1069.97
1071.08
1073.77
1076.6
1082.33
1085.75
1089.22
1091.97
1095.14
1098.76
1101.36
1103.89
1107.57
1110.77
1112.58
1113.5
1113.95
1111.89
1110.82
1106.98
1101.45
1094.2
1087.75
1081.68
1073.42
1067.08
1061.21
1060.56
1057.37
1056.4
1056.23
1054.98
1054.42
1052.81
1051.91
1051.9
1050.4
1050.4
1051.24
1050.8
1052.19
1054.52
1055.93
1058.55
1062.55
1066.29
1072.31
1078.12
1082.85
1086.07
1087.93
1088.19
1087.07
1084.5
1081.57
1077.82
1076.02
1073.57
1071.36
1069.4
1065.9
1061.8
1058.75
1058.2
1057.93
1059.45
1060.97
1062.48
1065.75
1069.99
1075.7
1082.67
1089.42
1096.04
1100.62
1105.95
1111.29
1115.56
1120.12
1122.97
1123.13
1121.68
1119.51
1115.8
1116.46
1116.03
1120.95
1126.72
1132.44
1137.46
1142.55
1146.24
1149.34
1149.73
1148.42
1146.76
1145.82
1143.79
1142.38
1139.48
1136.2
1133.18
1126.64
1119.57
1114.44
1108.85
1107.03
1108.21
1109.3
1111.42
1114.78
1119.65
1124.11
1129.62
1134.9
1138.81
1140.96
1142.13
1143.14
1142.36
1141.63
1141.79
1142.42
1141.2
1139.13
1138.03
1134.82
1129.49
1125.47
1119.69
1115.7
1109.97
1105.23
1102.69
1102.83
1103.15
1105.36
1106.81
1105.47
1102.46
1095.7
1091.89
1088.95
1082.41
1080.78
1081.35
1082.49
1086.97
1088.22
1093.24
1097.17
1102.5
1108.02
1111.4
1112.33
1112.22
1110.16
1109.46
1106.49
1104.32
1099.57
1093.96
1088.19
1083.52
1081.1
1080.57
1082.13
1085.46
1090.4
1096.97
1101.75
1105.24
1107.61
1106.85
1105.37
1101.23
1096.17
1092.91
1088.27
1086.92
1084.48
1084.26
1083.8
1084.18
1083.76
1083.74
1082.82
1087.18
1090.32
1096
1103.37
1107.74
1111.14
1112.67
1111.61
1109.43
1106.64
1105.28
1101.36
1097.86
1094.27
1089.13
1085.39
1081.39
1080.22
1081.97
1081.99
1083.76
1083.37
1081.9
1078.23
1074.7
1071.69
1070.65
1071.27
1072.46
1074.95
1076.85
1075.87
1075.42
1073.71
1071.71
1069.65
1069.19
1066.77
1063.83
1062.53
1062.71
1064.51
1068.4
1074.25
1080.27
1082.36
1084.05
1082.86
1080.46
1078.23
1072.83
1068.14
1063.16
1058.41
1054.2
1051.99
1051.05
1051.51
-6847.31
-6851.77
-6844.25
-6846.04
-6843.3
-6836.56
-6841.6
-6840.44
-6836.9
-6833.86
-6828.3
-6828.87
-6832.9
-6831.81
-6826.85
-6821.68
-6821.28
-6819.08
-6818.45
-6818.04
-6815.53
-6814.33
-6815.58
-6816.83
-6820.13
-6823.85
-6826.81
-6830.63
-6834.76
-6837.14
-6841.71
-6850.57
-6857.54
-6863.18
-6871.7
-6880.58
-6887.49
-6894.41
-6902.24
-6911.09
-6921.17
-6930.31
-6938.17
-6948.58
-6964.24
-6979.68
-6990.85
-7007.21
-7032.03
-7057.2
-7070.36
-7076.38
-7093.71
-7124.72
-7146.6
-7150.48
-7147.88
-7164
-7213.57
-7239.96
-7227.88
-7229.57
-7254.53
-7311.02
-7344
-7351.67
-7366.7
-7387.72
-7428.3
-7460.04
-7475.45
-7477.1
-7503.96
-7538.41
-7592.51
-7566.15
-7587.6
-7586.06
-7595.33
-7606.91
-7589.68
-7608.08
-7683.22
-7663.44
-7659.16
-7641.2
-7650.93
-7653.14
-7658.98
-7654.38
-7623.19
-7504.91
-7405.61
-7319.09
-7212.16
-7073.56
-6897.53
-6680.28
-6425.06
-6137.22
-5816.92
-5447.07
-5014.38
-4529.65
-3989.75
-3398.53
-2792.13
-2194.47
-1635
-1116.5
-660.943
-265.887
64.1819
328.522
531.476
680.167
781.343
848.763
891.59
915.844
928.154
922.497
928.166
922.132
922.33
932.651
938.698
946.678
949.368
950.899
951.926
952.283
949.394
949.2
950.61
954.755
948.381
939.259
929.579
916.517
909.481
902.039
906.464
914.634
921.593
922.678
929.876
928.465
929.889
930.643
929.496
929.265
923.26
935.636
940.896
943.01
951.245
953.947
957.904
962.668
964.038
966.599
963.62
960.795
956.348
957.336
959.186
954.693
961.769
965.652
967.307
966.561
961.736
954.643
951.325
936.058
938.172
936.44
933.086
930.931
931.152
936.692
938.587
940.097
947.922
950.989
956.695
954.322
950.299
952.268
948.466
952.482
953.299
948.853
957.882
963.886
964.14
971.092
968.521
965.588
962.263
958.614
951.073
952.564
953.16
950.055
951.892
947.677
941.982
933.373
932.896
935.849
928.129
936.592
938.08
939.172
942.733
936.771
926.078
930.811
932.051
929.066
923.303
934.504
935.975
933.072
943.757
949.793
952.424
949.162
948.142
942.469
947.568
946.975
951.817
952.285
946.81
942.769
942.773
946.478
942.23
939.477
931.905
935.384
938.686
940.986
937.841
939.49
934.146
943.026
952.499
952.61
957.897
963.575
966.707
970.905
969.788
964.25
966.755
960.315
954.657
949.647
939.884
925.479
932.334
932.909
928.215
928.524
924.917
922.317
931.9
935.15
944.979
948.593
952.349
955.279
956.864
964.042
970.634
970.146
970.049
972.682
974.22
971.779
974.46
965.313
961.64
956.297
955.453
946.885
932.994
923.921
914.005
915.247
906.003
912.857
911.355
906.737
911.493
908.973
908.74
911.456
907.314
907.084
904.568
900.046
908.522
913.137
912.653
914.367
914.805
914.511
926.042
932.8
937.919
943.438
946.887
948.899
948.112
947.95
943.451
939.203
937.397
928.938
931.966
934.897
931.962
929.773
926.957
920.823
913.147
918.222
920.677
921.293
922.71
920.417
927.847
936.719
941.428
947.021
951.106
961.28
965.665
968.722
975.862
978.864
981.457
983.528
982.235
976.219
975.762
965.1
976.547
978.635
986.523
992.723
1000.82
1004.38
1007.77
1005.31
1006.31
1008.16
1004.75
1003.49
1002.82
999.865
999.784
997.499
986.488
983.603
980.586
970.739
969.093
963.724
958.526
965.102
968.873
970.43
973.8
983.806
991.664
996.797
999.613
1002.42
1004.55
1001.46
999.623
998.824
998.281
997.183
1000.11
1001.08
993.149
989.646
990.783
981.675
979.619
969.656
967.672
963.801
957.173
950.285
958.666
964.838
965.97
964.599
957.92
957.969
945.467
933.25
940.736
938.355
936.485
935.664
930.368
944.053
949.637
960.033
964.313
966.225
970.21
973.163
972.889
974.031
965.862
966.737
957.391
954.876
950.566
942.962
933.551
931.792
932.478
933.783
940.935
946.323
947.545
954.722
961.979
965.486
970.137
966.195
962.994
958.797
947.13
943.123
934.126
939.534
941.538
941.193
942.435
943.032
939.691
942.985
934.662
946.982
955.826
957.812
966.328
967.521
969.306
970.779
970.171
970.463
962.429
961.072
958.925
951.393
950.35
943.394
940.482
936.315
930.163
938.018
938.785
942.839
939.685
937.659
930.665
924.742
926.095
930.805
935.831
935.162
931.659
936.16
933.494
933.728
930.947
924.85
911.704
910.763
915.7
916.836
916.331
916.725
925.43
931.702
933.907
942.885
943.975
942.442
937.789
926.476
928.549
926.21
920.97
916.239
910.547
906.013
907.879
906.78
-7102.98
-7105.5
-7099.05
-7098.44
-7094.18
-7086.7
-7088.59
-7085.34
-7079.02
-7072.54
-7064.44
-7062.4
-7063.23
-7058.68
-7049.96
-7041.38
-7037.64
-7032.61
-7028.81
-7025.09
-7019.38
-7015.21
-7013.99
-7013.3
-7014.58
-7016.37
-7017.56
-7019.53
-7021.83
-7022.94
-7026.63
-7034.7
-7041.44
-7047.24
-7055.41
-7063.41
-7069.72
-7076.97
-7085.94
-7095.86
-7106.15
-7115.22
-7123.85
-7136.02
-7153.09
-7169.61
-7184.01
-7206.42
-7238.73
-7269.69
-7287.65
-7296.88
-7318.54
-7353.35
-7377.83
-7386.41
-7388.31
-7416.54
-7475.86
-7504.34
-7498.23
-7503.58
-7559.4
-7627.79
-7658.84
-7685.76
-7719.8
-7756.55
-7783.01
-7809.55
-7834.19
-7868.44
-7894.5
-7928.22
-7952.79
-7966.59
-8003.44
-8061.76
-8101.01
-8108.7
-8088.97
-8074.49
-8081.6
-8152.39
-8165.4
-8146.06
-8070.11
-8072.3
-8059.68
-8113.55
-8080.98
-7944.22
-7820.78
-7699.99
-7568.97
-7414.92
-7238.67
-7023.83
-6783.87
-6523.3
-6196.26
-5819.36
-5377.51
-4872.46
-4304.09
-3666.43
-2991.64
-2375.74
-1789.13
-1289.74
-832.022
-453.523
-140.669
108.595
299.568
435.758
530.431
591.835
626.12
643.913
648.906
650.609
638.883
642.145
647.455
649.121
651.706
655.666
662.328
668.077
672.748
672.285
672.177
669.206
671.653
667.16
668.944
661.437
639.599
613.369
610.038
609.816
613.933
619.71
628.588
643.728
643.168
647.297
640.945
637.499
635.388
633.959
641.371
641.275
655.071
662.88
661.46
671.942
674.33
676.976
676.64
671.425
676.028
673.469
671.038
662.74
658.688
669.894
670.943
677.981
680.409
681.603
679.472
673.907
654.417
654.965
652.302
648.115
644.246
640.319
636.785
639.142
649.513
659.324
657.032
670.318
663.953
663.576
657.949
655.537
663.98
664.039
667.625
670.71
666.725
667.257
679.524
671.241
680.503
682.891
682.67
671.834
668.206
664.481
667.862
674.88
671.763
668.865
660.724
658.464
653.08
644.086
651.286
644.854
653.599
654.985
643.894
646.761
649.385
642.51
640.141
638.267
648.554
643.433
643.99
648.837
646.487
648.419
651.456
660.511
658.235
661.741
663.766
671.314
663.152
664.407
666.602
662.355
659.289
649.103
651.379
643.551
643.523
652.504
659.542
660.068
658.9
645.498
643.562
644.411
648.183
667.003
674.638
681.995
688.56
684.996
685.104
685.009
672.752
672.229
665.076
649.396
642.538
644.328
631.273
629.733
638.443
636.088
633.67
626.486
634.543
653.433
657.518
663.272
665.028
671.093
681.238
678.344
675.282
684.985
693.16
691.831
691.291
689.544
677.433
682.411
678.155
673.62
655.508
649.995
644.02
630.662
617.796
615.201
625.224
621.308
622.927
624.552
618.029
623.306
621.864
612.82
619.504
619.851
610.125
606.258
611.221
616.459
625.643
626.642
627.051
631.568
638.92
648.906
660.969
662.541
665.795
663.276
662.549
651.691
657.41
654.171
643.307
642.747
645.684
648.592
650.097
642.493
631.197
627.618
628.432
630.201
637.18
641.579
633.828
632.797
641.704
648.033
656.838
666.478
674.11
669.395
672.204
684.179
690.057
696.203
696.858
692.871
684.81
679.327
664.828
674.902
668.458
687.314
695.548
709.634
714.65
718.994
720.262
724.209
723.534
714.541
715.015
711.722
714.069
714.934
709.175
702.826
706.364
694.786
677.63
674.092
661.719
662.156
673.963
669.256
676.541
689.181
695.385
702.066
708.503
714.31
722.636
725.57
718.622
715.464
716.276
713.02
714.393
718.174
713.949
709.418
712.445
706.364
690.07
692.83
681.729
685.634
675.156
663.679
653.448
646.176
658.003
674.772
686.844
686.059
679.589
658.201
654.11
649.77
636.022
638.847
642.04
644.417
651.283
648.449
656.33
655.625
664.576
680.15
686.609
689.214
684.346
674.363
678.497
666.454
676.465
672.047
662.43
648.87
635.247
641.87
645.433
646.618
646.392
653.433
663.993
672.623
681.299
686.073
682.247
682.593
676.297
661.455
657.974
653.122
658.334
654.542
650.688
654.809
652.957
650.497
649.749
635.941
643.4
649.578
660.69
677.809
682.704
693.502
690.365
685.369
682.522
670.352
677.232
678.504
671.912
675.021
665.852
659.259
649.053
642.921
641.992
648.854
662.496
660.535
661.895
650.578
639.694
637.187
638.824
640.96
638.385
643.903
651.359
643.757
650.798
650.616
647.617
639.267
635.252
626.816
626.558
626.038
626.479
627.855
632.366
642.366
653.419
648.805
651.125
654.084
643.1
634.725
641.465
643.029
638.79
627.271
625.819
626.609
627.595
634.621
-7225.94
-7224.49
-7222.53
-7219.21
-7215.29
-7211.26
-7206.87
-7202.03
-7195.38
-7187.92
-7181.49
-7176.3
-7170.64
-7162.48
-7152.61
-7143.89
-7136.54
-7129.41
-7122.29
-7115.3
-7108.05
-7101.82
-7097.28
-7094.07
-7092.13
-7091.32
-7090.87
-7090.91
-7091.41
-7092.4
-7095.04
-7100.22
-7106.67
-7113.71
-7120.97
-7127.54
-7134.31
-7143.88
-7155.93
-7167.99
-7178.92
-7190.07
-7203.51
-7219.47
-7236.32
-7254.93
-7278.71
-7309.09
-7345.23
-7381.74
-7412.77
-7438.2
-7460.92
-7486.73
-7517.06
-7549.76
-7586.62
-7620.39
-7648.93
-7682.43
-7724.94
-7763.51
-7804.58
-7838.09
-7873.03
-7917.39
-7972.14
-8026.89
-8087.1
-8134.62
-8178.81
-8222.85
-8252.23
-8266.37
-8297.42
-8313.07
-8393.94
-8464.54
-8510.88
-8533.74
-8535.87
-8524.22
-8544.52
-8615.99
-8654.36
-8656.03
-8578.41
-8546.76
-8564.21
-8593.81
-8537.3
-8451.19
-8301.73
-8176.08
-8057.46
-7919.1
-7742.59
-7526.79
-7264.25
-6982.25
-6653.9
-6228.48
-5741.45
-5234.72
-4622.77
-3969.68
-3269.93
-2588.45
-2005.39
-1489.66
-1060.76
-692.823
-396.42
-169.234
-2.91097
118.801
199.695
248.434
274.78
288.398
277.281
237.391
253.448
225.7
216.701
253.085
275.686
281.72
275.075
286.793
286.392
289.565
284.271
284.196
294.13
304.475
294.492
278.49
254.53
188.026
207.895
178.058
208.652
220.593
248.085
256.694
273.409
267.129
260.434
259.039
248.228
247.28
217.578
264.815
273.257
276.124
284.89
289.116
298.966
303.011
305.968
307.884
297.013
288.195
263.763
276.842
278.183
258.263
290.998
309.12
316.812
314.342
304.091
291.386
280.062
230.127
258.82
263.201
250.658
257.102
258.4
251.447
267.079
274.96
291.625
287.043
297.328
284.636
271.155
268.991
253.939
275
274.405
248.21
282.692
293.535
289.521
305.185
307.496
309.451
295.406
284.825
256.391
281.493
287.72
284.636
288.876
281.276
270.589
241.831
253.854
260.193
229.712
264.765
273.345
274.597
276.848
253.116
219.921
257.797
264.069
257.95
226.29
261.356
265.356
235.092
267.493
280.821
287.168
284.087
277.599
244.405
271.729
277.401
291.604
289.877
283.261
273.125
280.054
285.517
280.902
269.671
223.006
255.043
271.625
280.814
271.812
261.696
217.809
250.871
274.149
284.531
296.243
304.294
305.33
315.718
311.528
302.589
305.986
295.63
279.883
262.482
250.672
218.862
246.362
260.268
260.088
258.827
240.089
194.382
243.545
260.959
283.295
286.287
284.975
293.551
293.639
306.589
315.771
315.798
312.721
318.056
317.561
307.249
299.64
290.49
290.278
283.325
283.661
270.939
252.046
229.542
182.613
218.614
199.789
241.077
238.248
210.409
233.025
227.171
216.561
235.16
237.771
231.527
221.752
178.74
225.472
237.896
241.239
232.1
234.663
210.762
252.332
280.576
289.11
298.167
293.084
293.495
285.311
284.542
272.023
267.796
259.986
225.099
262.592
276.685
280.294
277.84
271.486
252.656
218.576
254.6
266.801
261.233
254.43
216.85
253.456
274.213
283.867
287.936
287.254
299.095
301.374
296.875
305.466
316.772
325.61
322.769
314.328
297.315
282.878
247.577
284.763
301.653
321.539
329.119
340.331
351.203
353.042
347.892
340.412
333.418
308.688
319.064
322.479
323.556
328.197
330.839
315.906
310.216
304.293
284.022
273.772
262.808
265.911
289.193
298.907
292.247
293.829
320.502
338.747
352.611
349.252
340.474
344.521
340.09
326.526
316.633
323.77
323.943
332.822
335.558
321.106
314.37
316.861
302.625
300.297
288.149
288.608
280.459
260.591
210.151
276.718
302.795
308.423
306.405
286.162
274.666
253.542
216.259
240.32
237.161
249.771
244.416
221.15
257.623
266.653
267.629
277.639
295.2
307.557
306.504
306.943
307.109
292.16
292.912
281.849
283.002
280.698
259.356
201.705
239.205
245.351
240.441
261.306
264.562
258.43
280.584
293.155
300.643
312.734
312.395
302.694
295.277
275.536
259.71
228.19
251.75
263.94
246.06
264.867
271.953
264.844
255.485
211.518
260.153
282.832
289.479
301.335
293.813
296.598
300.595
286.282
292.818
288.463
289.151
297.349
288.723
282.886
264.61
239.103
241.338
216.396
262.814
275.367
287.963
280.635
274.558
259.825
227.693
245.199
254.337
259.738
271.541
268.901
274.811
271.785
275.976
271.513
258.081
203.014
195.321
232.25
234.259
230.19
206.207
241.734
259.445
260.396
274.851
278.67
271.852
262.392
200.361
253.806
267.086
263.307
256.278
238.39
217.718
237.233
242.014
-7275.93
-7274.68
-7271.54
-7267.69
-7262.64
-7256.25
-7250.24
-7242.88
-7233.79
-7224.05
-7214.33
-7205.72
-7196.51
-7184.76
-7171.69
-7159.55
-7149.37
-7138.48
-7127.36
-7117.46
-7107.95
-7099.17
-7091.21
-7084.35
-7079.89
-7077.49
-7075.65
-7074.33
-7073.13
-7072.17
-7073
-7077.71
-7084.75
-7093.12
-7100.67
-7105.46
-7111.86
-7123.87
-7139.11
-7153.17
-7165.64
-7180.06
-7198.39
-7219.48
-7239.17
-7259.67
-7286.73
-7325.32
-7371.7
-7416.31
-7453.05
-7482.94
-7513.93
-7550.06
-7587.88
-7626.41
-7666.25
-7712
-7762.84
-7810.67
-7856.02
-7905.57
-7956.31
-8009.14
-8068.1
-8134.54
-8199.03
-8263.47
-8320.91
-8381.62
-8437.34
-8499.28
-8517.1
-8554.3
-8570.88
-8618.02
-8729.13
-8828.52
-8879.85
-8899.31
-8871.7
-8893.75
-8995.8
-9075.15
-9087.8
-9037.15
-9071.97
-9059.4
-9088.23
-9062.76
-9045.46
-8983.59
-8870.48
-8744.74
-8619.31
-8469.88
-8264.4
-8034.11
-7766.95
-7413.61
-7025.38
-6602.37
-6087.41
-5475.58
-4904.85
-4193.05
-3449.03
-2803.72
-2252.47
-1731.49
-1319.64
-978.982
-707.324
-500.035
-344.482
-243.463
-180.068
-150.478
-140.184
-132.953
-143.422
-214.649
-186.436
-238.622
-250.506
-188.051
-187.312
-173.555
-204.102
-157.391
-138.447
-147.22
-158.675
-179.003
-143.614
-136.45
-131.187
-147.985
-177.817
-241.695
-224.543
-275.843
-240.21
-267.627
-212.752
-181.182
-174.815
-175.651
-221.069
-206.509
-240.208
-211.276
-251.079
-192.27
-168.249
-168.891
-196.174
-169.639
-167.034
-148.34
-151.642
-163.856
-147.804
-166.795
-227.174
-197.135
-215.336
-232.266
-164.838
-140.672
-134.292
-132.186
-131.839
-146.942
-192.618
-236.778
-176.953
-182.166
-227.703
-213.947
-213.982
-241.724
-188.273
-178.071
-201.48
-159.884
-165.69
-172.575
-219.86
-205.004
-227.606
-176.283
-163.187
-213.384
-165.181
-182.663
-155.225
-183.942
-147.205
-135.619
-129.383
-147.713
-195.845
-170.934
-160.513
-153.432
-149.62
-146.853
-163.915
-216.815
-175.702
-184.674
-244.618
-200.911
-176.365
-174.033
-209.631
-198.276
-256.613
-201.466
-195.093
-215.326
-248.454
-181.09
-175.549
-221.985
-188.793
-202.542
-202.778
-169.3
-170.949
-215.256
-177.765
-174.16
-168.401
-154.785
-161.466
-193.901
-175.801
-195.92
-173.18
-183.802
-226.933
-175.33
-159.637
-165.007
-176.112
-194.064
-250.321
-217.931
-223.566
-184.357
-180.394
-153.968
-138.276
-141.801
-139.976
-154.394
-180.597
-160.41
-168.732
-228.05
-209.765
-264.628
-222.344
-219.947
-196.621
-201.995
-203.083
-263.891
-224.22
-183.945
-169.575
-163.106
-193.491
-153.516
-136.331
-139.63
-157.991
-134.938
-134.133
-148.721
-136.293
-144.753
-194.672
-177.738
-168.387
-174.935
-214.007
-200.592
-210.674
-232.223
-277.335
-227.266
-262.726
-204.12
-198.207
-245.277
-212.797
-216.972
-268.677
-249.985
-217.944
-214.24
-232.197
-274.007
-219.665
-237.115
-207.656
-234.908
-201.829
-239.232
-178.272
-162.132
-148.663
-149.789
-148.208
-157.713
-171.939
-213.4
-178.079
-171.514
-185.058
-226.329
-170.418
-153.189
-155.044
-165.175
-194.564
-195.894
-229.839
-182.155
-163.882
-158.76
-177.971
-223.287
-174.229
-170.652
-181.879
-175.265
-176.158
-174.526
-173.817
-150.984
-131.959
-121.074
-122.77
-134.787
-161.842
-173.51
-229.585
-269.669
-223.624
-155.103
-128.289
-115.835
-108.767
-113.623
-121.751
-137.844
-123.53
-141.058
-188.606
-150.355
-144.373
-127.653
-125.247
-132.674
-132.254
-144.929
-195.336
-190.003
-232.17
-248.291
-201.966
-196.054
-169.14
-154.42
-178.142
-127.275
-103.801
-96.5617
-88.6833
-88.5352
-107.812
-136.836
-133.618
-167.363
-136.465
-118.641
-119.191
-134.704
-141.32
-148.866
-185.051
-162.098
-198.151
-166.646
-173.257
-189.953
-204.379
-248.423
-190.843
-140.531
-119.488
-130.916
-154.169
-220.919
-205.037
-267.283
-236.2
-257.201
-212.21
-215.717
-270.028
-209.658
-191.969
-243.667
-231.821
-155.92
-132.142
-129.401
-147.958
-186.399
-177.956
-213.246
-174.157
-169.573
-166.467
-183.651
-245.932
-197.514
-198.644
-240.925
-205.28
-192.336
-228.849
-188.828
-155.62
-141.214
-140.047
-138.899
-145.99
-184.175
-194.984
-200.666
-254.379
-191.987
-193.673
-240.963
-188.732
-194.24
-195.702
-233.573
-265.769
-200.438
-189.496
-162.251
-147.175
-139.013
-153.055
-161.445
-159.982
-202.531
-169.944
-153.686
-154.45
-153.338
-155.909
-177.465
-246.452
-202.941
-235.784
-178.208
-162.654
-154.653
-153.006
-163.315
-191.984
-221.368
-193.308
-186.573
-229.186
-193.211
-186.91
-216.156
-170.611
-164.556
-159.199
-183.384
-254.15
-250.092
-197.124
-228.826
-205.614
-246.815
-197.248
-186.91
-185.713
-208.023
-191.226
-180.995
-200.023
-253.452
-183.159
-168.933
-180.75
-202.507
-214.829
-268.409
-208.958
-183.407
-7236.34
-7234.87
-7231.29
-7226.35
-7219.96
-7211.45
-7203.37
-7193.71
-7181.82
-7169.5
-7156.33
-7143.84
-7130.6
-7115.25
-7097.71
-7083.21
-7069.13
-7053.54
-7039.73
-7026.92
-7014.65
-7003.38
-6993.38
-6984.4
-6977.82
-6974.04
-6971.46
-6968.69
-6967.02
-6967.14
-6970.2
-6974.7
-6981.48
-6989.63
-6997.84
-7007.2
-7014.73
-7030.05
-7045.83
-7062
-7078.32
-7092.94
-7118.97
-7146.11
-7168.71
-7183.84
-7215.72
-7268.98
-7324.88
-7375.95
-7417.38
-7450.76
-7489.01
-7539.68
-7594.54
-7647.05
-7691.79
-7734.29
-7796.19
-7874.47
-7948.27
-8003.45
-8039.69
-8092.9
-8185.04
-8270.6
-8350.84
-8446.43
-8541.13
-8617.71
-8675.7
-8728.24
-8757.14
-8805.93
-8834.98
-8917.55
-9042.38
-9137.42
-9160.32
-9189.24
-9224.24
-9311.86
-9419.33
-9489.42
-9484.09
-9496.7
-9524.76
-9568.71
-9563.85
-9564.11
-9546.25
-9485.77
-9414.33
-9294.4
-9131.67
-8960.16
-8742.19
-8454.62
-8167.24
-7822.21
-7377.53
-6917.22
-6414.58
-5785.95
-5149.29
-4434.6
-3689.43
-3041.5
-2478.67
-2017.99
-1609.53
-1285.48
-1042.17
-859.041
-743.602
-665.962
-627.262
-609.834
-635.293
-598.708
-605.174
-589.208
-601.175
-612.222
-625.663
-650.959
-700.337
-656.273
-675.732
-634.728
-650.355
-637.389
-671.768
-636.5
-624.825
-610.515
-620.726
-656.629
-629.375
-631.434
-660.856
-672.129
-722.202
-745.826
-697.62
-702.836
-660.696
-662.131
-707.261
-680.709
-716.097
-661.62
-644.696
-646.182
-649.977
-678.243
-706.28
-665.455
-690.696
-650.603
-643.558
-679.601
-644.637
-638.494
-690.1
-675.196
-710.771
-654.558
-652.267
-634.005
-627.58
-636.489
-638.891
-644.798
-680.43
-635.187
-639.918
-654.352
-701.275
-689.03
-710.919
-725.498
-678.462
-699.433
-741.309
-674.685
-644.371
-668.578
-719.784
-682.837
-679.883
-637.834
-619.608
-603.88
-626.4
-677.624
-673.263
-702.657
-635.382
-624.108
-646.996
-627.799
-638.784
-642.414
-679.077
-698.729
-673.032
-660.064
-638.778
-641.582
-663.552
-639.187
-642.503
-689.423
-674.862
-676.722
-738.698
-703.909
-656.732
-648.808
-653.838
-684.396
-641.812
-636.778
-621.899
-636.826
-663.037
-728.207
-740.637
-660.629
-633.358
-638.593
-651.188
-711.563
-692.825
-655.71
-638.954
-638.939
-648.516
-700.087
-647.643
-644.152
-644.962
-676.687
-653.917
-649.922
-700.829
-660.792
-675.51
-728.211
-743.277
-678.413
-713.317
-653.328
-662.564
-629.988
-643.45
-693.52
-715.325
-656.173
-668.092
-726.306
-676.264
-670.665
-708.205
-726.144
-683.085
-713.063
-673.1
-675.741
-738.154
-710.798
-653.352
-649.558
-681.968
-646.949
-648.759
-628.346
-662.168
-619.179
-628.9
-678.068
-628.663
-648.661
-724.027
-726.398
-689.335
-696.688
-744.728
-711.571
-749.24
-750.792
-676.198
-657.645
-635.244
-633.536
-642.836
-660.315
-675.204
-717.794
-740.625
-755.683
-700.015
-722.174
-719.52
-661.465
-675.021
-705.073
-657.426
-679.439
-649.472
-640.418
-660.125
-631.191
-627.379
-641.386
-672.516
-663.943
-694.635
-752.287
-705.297
-682.485
-654.435
-641.205
-643.379
-647.512
-636.62
-652.805
-697.233
-657.285
-647.88
-635.495
-632.625
-653.412
-630.319
-632.496
-655.798
-645.614
-669.734
-654.099
-707.933
-664.727
-694.41
-677.85
-656.502
-628.372
-618.585
-634.895
-685.703
-675.018
-746.323
-734.558
-735.236
-659.263
-636.486
-614.925
-616.957
-614.494
-622.8
-687.812
-633.762
-626.688
-670.622
-657.501
-685.015
-649.79
-651.854
-639.485
-672.842
-666.48
-723.777
-707.922
-748.832
-759.452
-743.599
-732.854
-668.294
-673.568
-623.481
-601.071
-594.153
-580.26
-587.683
-625.026
-616.725
-668.892
-630.989
-655.998
-630.915
-650.154
-632.74
-634.183
-685.82
-679.555
-720.085
-675.614
-725.779
-696.764
-686.342
-711.312
-694.12
-637.644
-653.221
-610.318
-603.83
-624.77
-681.075
-744.878
-690.12
-678.94
-718.129
-728.852
-684.804
-695.68
-732.27
-680.466
-676.182
-740.101
-730.915
-649.456
-634.208
-659.921
-668.992
-731.682
-706.076
-760.954
-723.642
-713.835
-662.535
-651.146
-639.961
-661.578
-682.059
-716.414
-682.633
-685.435
-674.828
-716.879
-674.037
-679.384
-650.091
-623.543
-624.054
-684.141
-665.369
-663.056
-699.781
-690.53
-664.173
-696.244
-669.016
-706.086
-681.317
-732.933
-671.963
-662.961
-706.431
-692.436
-656
-684.612
-702.801
-666.13
-707.438
-743.345
-707.846
-700.971
-666.964
-686.699
-659.723
-687.085
-711.116
-665.998
-645.217
-643.965
-685.087
-654.834
-657.222
-662.135
-667.3
-689.821
-678.195
-677.853
-722.44
-676.066
-701.82
-743.145
-685.822
-653.692
-630.503
-614.977
-601.566
-610.488
-630.948
-676.662
-662.929
-660.13
-679.619
-679.32
-718.476
-760.029
-698.477
-686.445
-660.014
-624.946
-637.734
-642.953
-655.976
-702.59
-701.301
-747.855
-696.899
-698.081
-7123.34
-7121.25
-7117.34
-7111.82
-7104.12
-7095.42
-7085.07
-7073.33
-7060.62
-7046.23
-7031.38
-7016.66
-7000.72
-6981.61
-6959.51
-6936.4
-6925.92
-6905.5
-6879.87
-6863.8
-6852.08
-6838.22
-6821.33
-6806.22
-6796.09
-6789.35
-6784.17
-6781.81
-6777.75
-6771.46
-6765.95
-6771.21
-6783.15
-6799.22
-6810.48
-6808.82
-6808.18
-6826.67
-6852.65
-6874.66
-6889.1
-6905.31
-6938.23
-6980.58
-7007.5
-7028.33
-7066.76
-7128.83
-7202.79
-7263.1
-7306.17
-7345.77
-7393.83
-7460.93
-7543.88
-7615.91
-7670.33
-7716.44
-7783.29
-7885.69
-7982.69
-8057.25
-8109.87
-8192.03
-8306.15
-8395.96
-8495.89
-8610.17
-8715.43
-8797.53
-8859.74
-8904.11
-8970.23
-9041.8
-9129.24
-9245.51
-9352.54
-9443.63
-9493.86
-9555.46
-9632.81
-9751.28
-9819.87
-9881.35
-9901.18
-9984.34
-10021.4
-10039.7
-10054
-10049.6
-10037.5
-9998.61
-9904.78
-9784.07
-9617.64
-9413.38
-9204.15
-8920.19
-8565.66
-8190.22
-7766.28
-7244.99
-6657.44
-6064.5
-5388.22
-4612.33
-3896.22
-3317.39
-2740.46
-2292.14
-1934.83
-1634.34
-1419.64
-1273.42
-1167.37
-1114.17
-1088.08
-1100.38
-1132.01
-1096.67
-1131.63
-1065.21
-1063.77
-1067.93
-1085.14
-1118.01
-1171.53
-1168.26
-1109.98
-1121.38
-1180.26
-1152.11
-1187.86
-1150.44
-1133.23
-1134.82
-1136.07
-1175.66
-1142.75
-1121.79
-1153.91
-1144.77
-1206.29
-1189.4
-1219.33
-1249.53
-1183.47
-1151.35
-1146.03
-1177.85
-1142.57
-1159.38
-1136.26
-1174.59
-1179.89
-1219.14
-1169.56
-1160.19
-1187.79
-1159.24
-1164.24
-1176.28
-1137.88
-1127.95
-1123.41
-1180.83
-1165.94
-1150.66
-1184.13
-1147.29
-1173.53
-1186.45
-1166.72
-1146.85
-1128.9
-1099.29
-1116.88
-1146.54
-1195.88
-1204.57
-1197.39
-1148.06
-1163.4
-1234.49
-1221.56
-1180.21
-1198.79
-1178.68
-1213.69
-1195.71
-1167.77
-1143.7
-1103.31
-1077.44
-1088.54
-1122.89
-1167.01
-1128.72
-1165.13
-1152.62
-1188.28
-1123.52
-1116.72
-1158.87
-1208.13
-1245.38
-1226.24
-1200.98
-1144.09
-1133.73
-1176.99
-1133.99
-1124.56
-1169.96
-1204.41
-1172.76
-1176.56
-1239.87
-1164.34
-1189.49
-1186.65
-1143.8
-1117.48
-1143.3
-1105.36
-1107.05
-1177.61
-1174.57
-1230.9
-1166.39
-1130.79
-1124.78
-1167.56
-1227.31
-1198.28
-1158.9
-1162.34
-1149.67
-1154.59
-1143.52
-1166.21
-1182.59
-1135.06
-1195.81
-1193.18
-1197.57
-1220.06
-1171.05
-1155.76
-1214.55
-1171.18
-1188.33
-1207.42
-1174.14
-1206.09
-1182.68
-1162.77
-1213.75
-1159.67
-1162.27
-1157.41
-1201.14
-1164.73
-1135.23
-1175.55
-1194.57
-1177.29
-1189.15
-1145.97
-1157.93
-1243.63
-1245.14
-1172.38
-1137.51
-1125.68
-1139.3
-1176.38
-1131.66
-1126.26
-1131.84
-1166.62
-1179
-1135.54
-1146.24
-1205.97
-1239.15
-1226.56
-1219.63
-1185.39
-1238.78
-1265.85
-1266.32
-1169.97
-1141.42
-1124.26
-1153.71
-1146.89
-1149.05
-1187.79
-1244.09
-1195.81
-1166.06
-1197.33
-1216
-1189.29
-1132.39
-1167.94
-1118
-1123.54
-1113.04
-1106.63
-1113.63
-1195.3
-1177.06
-1153.95
-1165.38
-1222.8
-1190.68
-1226.95
-1231.08
-1232.52
-1216.01
-1171.84
-1137.91
-1148.98
-1190.43
-1164.76
-1156.6
-1153.49
-1153.51
-1134.43
-1148.95
-1147.68
-1175.48
-1137.53
-1116.96
-1173.36
-1140.23
-1154.52
-1184.99
-1227.87
-1199.54
-1183.43
-1204.09
-1195.71
-1147.55
-1140.53
-1176.2
-1152.56
-1161.75
-1161.48
-1164.9
-1145.5
-1156.63
-1183.48
-1172.42
-1187.74
-1198.62
-1189.36
-1209.03
-1183.76
-1175.11
-1167.7
-1191.71
-1203.87
-1178.46
-1196.65
-1187.97
-1220.53
-1161.03
-1159.82
-1216.05
-1190.55
-1180
-1231.78
-1212.49
-1181.23
-1205.72
-1128.59
-1110.46
-1143.2
-1128.84
-1120.45
-1186.51
-1140.47
-1159.73
-1122.33
-1122.34
-1156.68
-1204.46
-1168.96