/*--------------------------------*- C++ -*----------------------------------*\
| =========                 |                                                 |
| \\      /  F ield         | OpenFOAM: The Open Source CFD Toolbox           |
|  \\    /   O peration     | Version:  v2012                                 |
|   \\  /    A nd           | Website:  www.openfoam.com                      |
|    \\/     M anipulation  |                                                 |
\*---------------------------------------------------------------------------*/
FoamFile
{
    version     2.0;
    format      ascii;
    class       volScalarField;
    location    "350";
    object      p;
}
// * * * * * * * * * * * * * * * * * * * * * * * * * * * * * * * * * * * * * //

dimensions      [1 -1 -2 0 0 0 0];


internalField   nonuniform List<scalar> 
65536
(
157925
157925
157924
157923
157922
157921
157919
157917
157915
157912
157909
157906
157902
157899
157894
157890
157885
157879
157874
157867
157860
157853
157845
157837
157828
157818
157808
157797
157786
157775
157763
157750
157737
157724
157710
157697
157683
157668
157654
157639
157624
157609
157594
157579
157564
157550
157535
157521
157506
157492
157479
157466
157454
157441
157430
157419
157409
157399
157389
157381
157374
157367
157361
157355
157351
157348
157345
157342
157340
157341
157341
157343
157346
157348
157350
157355
157358
157361
157368
157374
157382
157387
157391
157399
157408
157417
157426
157434
157445
157454
157465
157478
157490
157504
157518
157533
157549
157566
157583
157597
157611
157625
157637
157650
157662
157673
157684
157693
157702
157708
157710
157709
157705
157698
157691
157684
157676
157669
157661
157654
157647
157640
157634
157628
157622
157616
157610
157604
157599
157593
157588
157583
157579
157574
157570
157566
157562
157559
157555
157552
157548
157545
157542
157539
157536
157533
157530
157528
157526
157523
157521
157520
157518
157516
157514
157513
157511
157509
157508
157506
157504
157503
157501
157499
157498
157496
157495
157494
157493
157491
157490
157489
157488
157487
157486
157485
157485
157484
157483
157482
157482
157481
157481
157480
157479
157479
157479
157478
157478
157477
157477
157477
157476
157476
157476
157475
157475
157475
157475
157475
157475
157475
157475
157475
157475
157475
157475
157475
157475
157475
157475
157475
157474
157474
157474
157474
157473
157473
157473
157473
157473
157473
157473
157473
157473
157473
157472
157472
157472
157472
157472
157472
157472
157472
157472
157472
157472
157472
157472
157473
157473
157473
157473
157473
157473
157473
157473
157473
157474
157474
157474
157473
157473
157473
157473
157473
157473
157473
157473
157473
157473
157473
157473
157473
157474
157474
157475
157475
157476
157476
157476
157477
157477
157477
157478
157478
157479
157479
157479
157480
157480
157480
157481
157481
157482
157482
157482
157482
157482
157483
157483
157483
157483
157483
157483
157483
157483
157483
157483
157482
157482
157482
157482
157481
157481
157481
157481
157480
157480
157480
157480
157480
157480
157480
157480
157480
157480
157480
157480
157480
157480
157479
157479
157478
157478
157477
157477
157477
157476
157476
157476
157476
157476
157476
157476
157476
157476
157476
157476
157476
157476
157476
157476
157476
157476
157476
157476
157476
157476
157476
157476
157476
157476
157476
157476
157476
157476
157476
157476
157476
157476
157476
157476
157475
157475
157475
157475
157475
157475
157475
157475
157475
157475
157475
157475
157475
157474
157474
157474
157474
157474
157474
157473
157473
157473
157474
157474
157474
157474
157475
157475
157475
157475
157476
157476
157476
157475
157475
157475
157475
157475
157475
157474
157474
157474
157474
157475
157475
157475
157475
157475
157475
157475
157476
157476
157475
157476
157475
157475
157475
157475
157476
157476
157476
157476
157476
157476
157476
157476
157475
157475
157475
157475
157475
157474
157474
157473
157473
157473
157473
157473
157473
157473
157473
157474
157474
157474
157474
157474
157474
157474
157473
157473
157473
157473
157473
157473
157472
157472
157472
157472
157472
157472
157472
157472
157472
157472
157472
157472
157472
157472
157472
157472
157472
157473
157473
157473
157473
157473
157472
157472
157472
157471
157471
157471
157470
157470
157470
157470
157470
157470
157470
157470
157470
157470
157470
157470
157470
157470
157470
157470
157469
157469
157469
157469
157469
157469
157469
157469
157469
157469
157469
157003
157003
157002
157001
157000
156999
156997
156995
156993
156990
156988
156984
156981
156977
156973
156968
156963
156958
156952
156946
156939
156932
156924
156915
156906
156896
156886
156876
156865
156853
156841
156829
156816
156803
156790
156776
156762
156747
156733
156718
156703
156689
156674
156659
156644
156629
156614
156600
156585
156572
156558
156546
156533
156521
156509
156498
156488
156478
156469
156461
156453
156446
156440
156435
156431
156427
156423
156420
156419
156420
156421
156422
156424
156426
156430
156433
156435
156439
156446
156454
156461
156466
156470
156478
156487
156495
156504
156514
156523
156533
156544
156556
156569
156582
156597
156612
156629
156646
156664
156680
156694
156709
156723
156736
156749
156763
156774
156784
156793
156801
156805
156805
156802
156797
156791
156784
156777
156770
156763
156757
156750
156743
156737
156731
156725
156719
156714
156708
156703
156697
156692
156687
156683
156678
156674
156670
156666
156663
156659
156656
156653
156649
156646
156643
156640
156638
156635
156633
156630
156628
156626
156624
156622
156621
156619
156617
156616
156614
156612
156611
156609
156607
156606
156604
156603
156601
156600
156599
156598
156596
156595
156594
156593
156592
156591
156591
156590
156589
156588
156588
156587
156586
156586
156585
156585
156584
156584
156583
156583
156583
156582
156582
156581
156581
156581
156580
156580
156580
156580
156580
156580
156580
156580
156580
156580
156581
156580
156580
156580
156580
156580
156580
156579
156579
156579
156579
156579
156578
156578
156578
156578
156578
156578
156578
156578
156578
156577
156577
156577
156577
156577
156577
156577
156577
156577
156577
156577
156578
156578
156578
156578
156578
156578
156578
156578
156578
156579
156579
156579
156579
156579
156579
156579
156578
156578
156578
156578
156578
156578
156578
156578
156578
156578
156578
156579
156579
156580
156580
156581
156581
156582
156582
156582
156583
156583
156583
156584
156584
156585
156585
156585
156586
156586
156586
156587
156587
156587
156587
156588
156588
156588
156588
156588
156588
156588
156588
156588
156588
156588
156588
156587
156587
156587
156586
156586
156586
156586
156585
156585
156585
156585
156585
156585
156585
156585
156585
156585
156585
156585
156585
156585
156584
156584
156583
156583
156582
156582
156582
156581
156581
156581
156581
156581
156581
156581
156581
156581
156581
156581
156581
156581
156581
156581
156581
156581
156581
156581
156581
156581
156581
156581
156581
156581
156581
156581
156581
156581
156581
156581
156581
156581
156581
156581
156581
156581
156581
156580
156580
156580
156580
156580
156580
156580
156580
156580
156580
156580
156579
156579
156579
156579
156579
156579
156579
156579
156579
156579
156580
156580
156580
156580
156581
156581
156581
156581
156581
156581
156581
156580
156580
156580
156580
156580
156580
156580
156580
156580
156580
156580
156580
156580
156581
156581
156581
156581
156580
156581
156580
156580
156580
156581
156581
156581
156581
156581
156581
156581
156581
156581
156581
156580
156580
156580
156580
156580
156579
156579
156579
156578
156578
156578
156578
156578
156578
156579
156579
156579
156579
156579
156579
156579
156579
156579
156578
156578
156578
156578
156578
156578
156578
156578
156578
156578
156578
156578
156577
156577
156577
156577
156577
156577
156577
156577
156578
156578
156578
156578
156578
156578
156578
156577
156577
156577
156576
156576
156576
156575
156575
156575
156575
156575
156575
156575
156575
156575
156575
156575
156575
156575
156575
156575
156575
156575
156574
156574
156574
156574
156574
156574
156574
156574
156574
156085
156085
156085
156084
156083
156081
156080
156078
156075
156073
156070
156067
156063
156060
156056
156051
156046
156041
156035
156028
156022
156014
156006
155998
155989
155979
155969
155959
155948
155936
155925
155912
155900
155886
155873
155859
155845
155831
155816
155802
155787
155772
155757
155742
155727
155712
155698
155683
155669
155655
155642
155629
155616
155604
155593
155582
155571
155561
155553
155545
155537
155529
155523
155519
155515
155510
155507
155504
155503
155504
155505
155506
155508
155510
155514
155515
155518
155521
155530
155537
155545
155551
155553
155561
155570
155580
155588
155598
155607
155615
155626
155637
155651
155665
155679
155695
155712
155730
155748
155765
155780
155797
155811
155824
155838
155853
155866
155878
155887
155894
155900
155902
155900
155897
155892
155887
155881
155875
155868
155862
155856
155850
155844
155838
155832
155826
155821
155816
155811
155805
155801
155796
155791
155787
155782
155779
155775
155771
155768
155765
155761
155758
155755
155752
155749
155746
155744
155741
155739
155737
155735
155733
155731
155729
155728
155726
155724
155722
155721
155719
155718
155716
155715
155713
155712
155710
155709
155708
155707
155706
155705
155704
155703
155702
155701
155700
155699
155698
155698
155697
155697
155696
155696
155695
155694
155694
155693
155693
155693
155692
155692
155691
155691
155691
155691
155690
155690
155690
155690
155689
155690
155690
155690
155690
155690
155690
155690
155690
155690
155690
155690
155689
155689
155689
155689
155689
155688
155688
155688
155688
155688
155687
155687
155688
155687
155687
155687
155687
155687
155687
155687
155687
155687
155687
155687
155687
155687
155687
155687
155687
155688
155688
155688
155688
155688
155688
155688
155688
155688
155688
155688
155688
155688
155688
155688
155688
155688
155688
155688
155688
155688
155688
155688
155688
155689
155689
155689
155690
155690
155691
155691
155691
155692
155692
155692
155693
155693
155694
155694
155694
155695
155695
155696
155696
155696
155696
155697
155697
155697
155697
155697
155698
155698
155698
155698
155698
155697
155697
155697
155697
155697
155697
155696
155696
155696
155696
155695
155695
155695
155695
155694
155694
155694
155694
155694
155694
155695
155695
155695
155694
155694
155694
155693
155693
155692
155692
155692
155691
155691
155691
155691
155690
155690
155690
155690
155690
155690
155690
155690
155690
155690
155691
155691
155691
155691
155691
155691
155691
155691
155691
155691
155691
155691
155691
155691
155691
155691
155691
155691
155691
155691
155691
155691
155691
155691
155690
155690
155690
155690
155690
155690
155690
155690
155690
155690
155690
155689
155689
155689
155689
155689
155689
155689
155689
155689
155689
155689
155689
155689
155690
155690
155690
155690
155691
155690
155690
155690
155690
155690
155690
155690
155690
155690
155689
155689
155689
155690
155690
155690
155690
155690
155690
155690
155690
155690
155690
155690
155690
155690
155690
155690
155690
155690
155690
155691
155691
155691
155690
155690
155690
155690
155690
155690
155690
155689
155689
155689
155688
155688
155688
155688
155688
155688
155688
155688
155688
155689
155689
155689
155689
155688
155688
155688
155688
155688
155688
155688
155688
155688
155687
155687
155687
155688
155688
155688
155688
155688
155687
155687
155687
155687
155687
155687
155687
155687
155687
155688
155688
155688
155688
155687
155687
155687
155686
155686
155685
155685
155685
155685
155685
155685
155685
155685
155685
155685
155685
155685
155685
155685
155685
155684
155684
155684
155684
155684
155683
155683
155683
155683
155683
155683
155683
155172
155172
155171
155170
155169
155168
155166
155164
155162
155160
155157
155154
155150
155147
155143
155138
155133
155128
155122
155116
155109
155101
155093
155085
155076
155067
155057
155046
155035
155024
155012
155000
154987
154974
154961
154947
154933
154918
154904
154889
154874
154859
154844
154829
154814
154799
154785
154770
154756
154742
154729
154716
154703
154691
154679
154668
154658
154648
154639
154631
154623
154616
154610
154605
154601
154596
154593
154591
154590
154591
154591
154592
154594
154595
154598
154599
154601
154606
154614
154622
154630
154634
154639
154647
154657
154666
154675
154684
154693
154701
154710
154723
154737
154751
154764
154780
154798
154816
154835
154856
154870
154885
154905
154918
154930
154947
154960
154971
154984
154992
154998
155001
155002
154999
154996
154992
154987
154982
154976
154970
154965
154959
154953
154948
154942
154937
154932
154927
154922
154918
154913
154908
154903
154899
154895
154891
154887
154884
154880
154877
154874
154871
154868
154865
154862
154859
154856
154854
154852
154850
154848
154846
154844
154842
154840
154839
154837
154835
154834
154832
154831
154829
154828
154826
154825
154823
154822
154821
154820
154819
154818
154817
154816
154815
154815
154814
154813
154812
154812
154811
154811
154810
154809
154809
154808
154808
154807
154806
154806
154806
154806
154805
154805
154804
154804
154804
154804
154803
154803
154803
154803
154803
154804
154804
154803
154803
154803
154804
154804
154803
154803
154803
154803
154803
154802
154802
154802
154802
154802
154802
154801
154801
154801
154801
154801
154801
154801
154801
154801
154801
154801
154801
154801
154801
154801
154801
154801
154801
154801
154801
154801
154801
154801
154801
154801
154802
154802
154802
154802
154802
154802
154802
154802
154802
154802
154802
154801
154801
154801
154801
154801
154802
154802
154802
154802
154803
154803
154803
154804
154804
154805
154805
154805
154806
154806
154806
154807
154807
154808
154808
154809
154809
154809
154810
154810
154810
154810
154810
154810
154810
154811
154811
154811
154811
154811
154811
154811
154811
154811
154811
154811
154810
154810
154810
154809
154809
154809
154809
154809
154808
154808
154808
154807
154808
154808
154807
154807
154807
154807
154807
154807
154807
154807
154806
154806
154805
154805
154804
154804
154804
154804
154804
154804
154804
154804
154804
154804
154804
154804
154804
154805
154804
154804
154804
154804
154804
154804
154804
154804
154804
154804
154804
154804
154804
154804
154805
154805
154805
154805
154805
154805
154805
154805
154805
154805
154805
154804
154804
154804
154804
154804
154804
154804
154804
154804
154803
154803
154803
154803
154803
154803
154803
154803
154803
154803
154803
154804
154804
154804
154804
154804
154804
154805
154805
154804
154804
154804
154804
154804
154804
154804
154804
154803
154803
154803
154803
154803
154804
154804
154804
154804
154804
154804
154804
154804
154804
154804
154803
154803
154803
154804
154804
154804
154804
154804
154804
154804
154804
154804
154804
154804
154804
154804
154803
154803
154802
154802
154802
154802
154802
154802
154802
154802
154802
154802
154802
154802
154802
154802
154803
154802
154802
154802
154802
154802
154802
154802
154802
154802
154802
154802
154802
154802
154802
154802
154801
154801
154801
154801
154801
154801
154801
154801
154801
154801
154801
154801
154801
154801
154801
154801
154801
154800
154800
154800
154799
154799
154799
154799
154799
154799
154799
154799
154799
154799
154799
154799
154799
154799
154798
154798
154798
154798
154798
154798
154797
154797
154796
154797
154797
154797
154797
154263
154263
154262
154262
154261
154259
154258
154256
154254
154251
154249
154246
154242
154239
154234
154230
154225
154220
154214
154208
154201
154193
154186
154177
154168
154159
154149
154138
154128
154116
154104
154092
154079
154066
154053
154039
154025
154011
153996
153981
153966
153951
153936
153921
153906
153891
153876
153862
153847
153834
153820
153807
153794
153782
153770
153759
153749
153739
153730
153722
153714
153707
153701
153696
153691
153687
153684
153682
153681
153681
153681
153683
153685
153686
153689
153691
153693
153700
153708
153714
153721
153726
153732
153740
153750
153757
153766
153775
153784
153791
153800
153813
153825
153840
153854
153868
153887
153908
153924
153945
153965
153978
153995
154015
154028
154042
154059
154069
154080
154092
154099
154103
154105
154105
154102
154099
154095
154091
154086
154081
154076
154071
154066
154061
154055
154051
154046
154042
154037
154032
154028
154022
154018
154014
154010
154006
154002
153999
153996
153992
153989
153986
153983
153981
153978
153975
153973
153971
153968
153966
153964
153962
153960
153959
153956
153955
153953
153952
153950
153949
153947
153946
153944
153943
153942
153940
153939
153938
153938
153937
153936
153935
153934
153933
153932
153931
153930
153929
153929
153928
153928
153927
153927
153926
153926
153925
153925
153924
153924
153923
153923
153922
153922
153922
153922
153921
153921
153921
153920
153920
153920
153920
153921
153921
153921
153920
153921
153921
153921
153920
153921
153921
153920
153921
153920
153920
153920
153919
153919
153919
153919
153919
153919
153919
153919
153919
153919
153919
153919
153919
153919
153918
153919
153918
153919
153919
153919
153918
153918
153918
153918
153918
153918
153918
153918
153918
153919
153919
153919
153919
153919
153919
153919
153919
153919
153919
153919
153919
153919
153919
153919
153920
153919
153920
153920
153920
153921
153921
153921
153922
153922
153923
153923
153923
153924
153924
153924
153925
153925
153925
153925
153926
153927
153927
153927
153927
153928
153928
153928
153928
153928
153928
153928
153928
153928
153929
153928
153928
153928
153928
153928
153927
153927
153927
153927
153926
153926
153926
153925
153926
153925
153925
153924
153925
153925
153925
153925
153925
153925
153925
153924
153924
153924
153923
153923
153923
153922
153922
153922
153922
153921
153921
153921
153921
153921
153921
153921
153921
153922
153922
153922
153922
153922
153922
153921
153922
153922
153922
153922
153922
153921
153922
153922
153922
153923
153922
153923
153923
153923
153923
153922
153922
153923
153923
153922
153922
153922
153922
153922
153922
153922
153922
153922
153921
153921
153921
153921
153921
153921
153921
153921
153921
153921
153921
153921
153922
153922
153922
153922
153922
153922
153922
153922
153922
153922
153922
153922
153922
153922
153922
153922
153921
153921
153921
153921
153921
153921
153921
153921
153921
153921
153921
153921
153921
153921
153921
153921
153921
153921
153921
153921
153921
153921
153922
153922
153922
153922
153922
153921
153921
153921
153921
153921
153921
153921
153920
153920
153920
153920
153920
153920
153919
153919
153919
153920
153920
153920
153920
153920
153920
153920
153920
153920
153920
153919
153919
153919
153919
153919
153919
153919
153919
153919
153920
153920
153920
153919
153919
153919
153919
153919
153918
153918
153919
153919
153919
153919
153919
153919
153918
153918
153918
153918
153918
153918
153918
153917
153916
153917
153916
153917
153917
153917
153917
153917
153916
153916
153916
153916
153916
153916
153916
153916
153915
153915
153915
153914
153914
153914
153914
153914
153914
153359
153359
153358
153358
153357
153355
153354
153352
153350
153348
153345
153342
153339
153335
153331
153327
153322
153317
153311
153305
153298
153290
153283
153274
153265
153256
153246
153236
153225
153213
153202
153189
153177
153164
153150
153136
153122
153108
153093
153078
153063
153048
153032
153017
153002
152987
152972
152957
152943
152929
152916
152902
152889
152877
152865
152854
152843
152833
152824
152816
152808
152801
152795
152789
152785
152781
152778
152776
152775
152775
152775
152777
152778
152780
152782
152785
152789
152795
152801
152806
152814
152820
152826
152834
152841
152850
152859
152869
152878
152885
152895
152907
152919
152931
152947
152961
152977
153001
153022
153036
153058
153081
153094
153107
153127
153142
153156
153174
153184
153193
153204
153209
153211
153212
153212
153210
153207
153203
153200
153195
153191
153186
153182
153177
153173
153168
153164
153159
153155
153150
153146
153141
153137
153133
153129
153126
153122
153118
153115
153112
153109
153106
153103
153100
153098
153095
153093
153091
153088
153086
153084
153082
153080
153078
153077
153075
153073
153072
153070
153069
153068
153066
153065
153063
153062
153061
153059
153058
153057
153056
153056
153055
153055
153054
153053
153052
153051
153050
153049
153049
153048
153048
153047
153047
153047
153046
153046
153045
153045
153044
153044
153043
153043
153043
153043
153043
153043
153042
153041
153041
153042
153041
153042
153041
153042
153041
153042
153042
153042
153042
153042
153041
153041
153041
153041
153041
153041
153040
153040
153040
153040
153040
153040
153040
153040
153040
153040
153040
153040
153040
153040
153040
153040
153040
153040
153040
153040
153040
153040
153039
153039
153039
153040
153040
153040
153040
153040
153040
153040
153040
153040
153040
153041
153040
153040
153040
153040
153041
153040
153041
153041
153041
153041
153041
153041
153042
153042
153042
153042
153043
153043
153043
153044
153044
153044
153045
153045
153046
153046
153047
153047
153047
153048
153048
153048
153048
153049
153048
153048
153049
153049
153049
153049
153049
153049
153050
153050
153050
153050
153049
153049
153049
153049
153048
153048
153048
153047
153047
153046
153046
153046
153046
153045
153046
153046
153046
153046
153046
153046
153046
153045
153045
153045
153044
153044
153044
153044
153043
153043
153043
153043
153043
153043
153042
153042
153042
153042
153042
153043
153043
153043
153043
153043
153043
153042
153043
153043
153043
153042
153042
153042
153043
153043
153044
153044
153044
153044
153043
153044
153044
153043
153043
153044
153044
153044
153044
153044
153043
153043
153043
153043
153043
153042
153043
153042
153043
153042
153043
153042
153042
153043
153043
153043
153043
153043
153043
153043
153043
153043
153043
153044
153044
153044
153044
153044
153043
153043
153043
153043
153043
153043
153042
153042
153042
153043
153043
153043
153043
153042
153042
153042
153042
153042
153042
153042
153042
153042
153042
153042
153042
153042
153043
153043
153043
153043
153043
153043
153043
153043
153043
153042
153042
153042
153042
153041
153041
153040
153041
153041
153041
153041
153040
153041
153040
153041
153040
153041
153041
153040
153041
153041
153041
153041
153041
153041
153041
153041
153041
153040
153040
153040
153040
153041
153041
153041
153041
153041
153041
153040
153040
153040
153039
153039
153040
153040
153040
153040
153040
153040
153040
153040
153040
153039
153039
153039
153040
153039
153038
153039
153038
153038
153038
153038
153038
153038
153038
153038
153038
153037
153037
153037
153037
153036
153036
153036
153036
153036
153036
153036
153035
153035
153035
152460
152460
152460
152459
152458
152457
152455
152454
152452
152449
152447
152444
152441
152437
152433
152429
152424
152419
152413
152407
152400
152393
152385
152377
152368
152358
152348
152338
152327
152316
152304
152292
152279
152266
152252
152238
152224
152209
152194
152179
152164
152149
152134
152118
152103
152087
152073
152058
152043
152029
152015
152002
151989
151977
151965
151954
151943
151933
151923
151915
151907
151900
151894
151888
151884
151880
151877
151875
151874
151873
151873
151875
151876
151878
151880
151884
151887
151892
151898
151903
151911
151918
151924
151931
151938
151947
151956
151965
151973
151982
151991
152002
152016
152027
152040
152059
152076
152092
152118
152139
152152
152174
152198
152212
152229
152248
152258
152273
152293
152301
152309
152317
152321
152323
152323
152323
152321
152318
152315
152312
152309
152304
152300
152296
152293
152288
152284
152279
152275
152271
152268
152264
152259
152255
152251
152248
152244
152240
152237
152235
152232
152229
152226
152223
152221
152219
152216
152214
152212
152210
152207
152205
152204
152202
152200
152199
152197
152196
152194
152192
152191
152190
152189
152188
152186
152185
152184
152182
152182
152181
152180
152179
152178
152178
152177
152176
152175
152175
152174
152174
152173
152172
152172
152171
152171
152171
152170
152170
152169
152169
152168
152167
152167
152167
152167
152167
152166
152166
152166
152166
152166
152166
152165
152166
152164
152165
152166
152166
152166
152166
152166
152166
152165
152165
152165
152165
152165
152165
152165
152165
152165
152165
152165
152165
152165
152165
152165
152165
152164
152165
152165
152165
152165
152165
152164
152165
152165
152165
152165
152164
152164
152164
152164
152165
152165
152165
152165
152165
152165
152165
152165
152165
152166
152165
152165
152165
152165
152166
152165
152166
152165
152166
152166
152166
152166
152166
152166
152166
152167
152167
152168
152168
152169
152169
152169
152169
152170
152170
152171
152171
152172
152172
152172
152173
152173
152173
152173
152173
152173
152173
152173
152174
152174
152174
152174
152174
152174
152174
152174
152174
152173
152173
152173
152173
152172
152172
152172
152171
152171
152171
152170
152171
152171
152171
152171
152172
152171
152170
152170
152170
152169
152169
152168
152169
152168
152169
152168
152169
152168
152168
152168
152168
152167
152167
152167
152167
152167
152168
152168
152168
152168
152168
152168
152168
152167
152168
152168
152168
152168
152167
152167
152167
152168
152167
152168
152169
152169
152168
152169
152168
152168
152168
152168
152168
152169
152168
152167
152168
152168
152168
152168
152168
152168
152167
152168
152167
152167
152168
152167
152168
152168
152168
152169
152169
152169
152169
152169
152169
152169
152169
152169
152169
152169
152168
152168
152168
152168
152168
152168
152168
152168
152168
152168
152168
152167
152168
152167
152167
152167
152167
152167
152167
152167
152166
152166
152166
152166
152166
152166
152167
152167
152167
152167
152167
152167
152167
152167
152167
152167
152167
152167
152167
152166
152166
152166
152166
152166
152166
152166
152166
152166
152165
152165
152165
152165
152165
152165
152166
152165
152165
152165
152165
152165
152165
152165
152165
152165
152165
152165
152165
152166
152166
152166
152166
152166
152166
152166
152166
152165
152164
152164
152164
152164
152165
152165
152165
152165
152165
152165
152164
152164
152164
152164
152164
152164
152164
152164
152164
152164
152163
152163
152163
152163
152163
152163
152163
152162
152162
152162
152162
152162
152162
152161
152162
152162
152161
152161
152161
152161
152160
152160
152160
151567
151566
151566
151565
151565
151563
151562
151561
151559
151556
151554
151551
151548
151545
151541
151537
151532
151527
151521
151515
151508
151501
151493
151484
151476
151466
151456
151446
151435
151424
151412
151399
151387
151373
151360
151345
151331
151316
151301
151286
151270
151255
151240
151224
151208
151193
151178
151163
151148
151134
151120
151106
151093
151080
151068
151057
151046
151036
151027
151018
151010
151003
150996
150991
150986
150982
150979
150977
150975
150975
150975
150976
150977
150979
150982
150985
150989
150994
150998
151004
151011
151018
151024
151031
151039
151047
151056
151064
151073
151081
151092
151102
151115
151129
151139
151154
151178
151197
151214
151239
151262
151277
151294
151315
151334
151355
151372
151381
151396
151413
151421
151428
151434
151438
151439
151439
151439
151437
151435
151432
151429
151425
151421
151417
151415
151411
151406
151403
151399
151394
151391
151388
151384
151381
151377
151373
151370
151366
151363
151360
151358
151355
151353
151350
151348
151345
151343
151341
151339
151337
151336
151334
151332
151330
151328
151327
151325
151323
151321
151321
151319
151317
151317
151315
151314
151314
151313
151310
151309
151308
151308
151306
151306
151305
151304
151304
151303
151303
151302
151302
151301
151300
151300
151300
151298
151299
151298
151298
151296
151296
151296
151296
151296
151296
151295
151294
151294
151294
151294
151295
151294
151294
151293
151294
151292
151292
151293
151294
151293
151293
151293
151293
151293
151293
151294
151293
151293
151293
151293
151293
151293
151293
151293
151293
151292
151293
151293
151293
151293
151293
151293
151293
151293
151293
151293
151293
151293
151293
151293
151294
151293
151293
151293
151293
151293
151293
151292
151293
151293
151293
151293
151293
151292
151292
151293
151293
151294
151294
151294
151295
151294
151295
151295
151295
151295
151294
151294
151294
151295
151295
151296
151296
151297
151297
151298
151298
151298
151298
151298
151298
151300
151299
151300
151300
151300
151300
151301
151301
151302
151301
151301
151301
151301
151301
151302
151302
151302
151302
151302
151302
151301
151301
151301
151301
151301
151301
151300
151299
151299
151299
151299
151300
151300
151299
151299
151299
151300
151297
151297
151297
151297
151297
151296
151297
151297
151297
151296
151296
151297
151296
151296
151296
151295
151295
151295
151295
151296
151296
151296
151296
151295
151296
151296
151295
151296
151296
151296
151296
151297
151296
151297
151296
151297
151296
151295
151296
151296
151296
151296
151296
151296
151296
151296
151296
151295
151296
151295
151296
151295
151296
151296
151296
151296
151295
151295
151296
151296
151297
151297
151296
151297
151297
151297
151298
151298
151297
151297
151297
151297
151297
151297
151297
151297
151297
151297
151297
151297
151297
151297
151296
151296
151296
151296
151296
151296
151296
151296
151295
151295
151295
151295
151294
151295
151294
151295
151295
151294
151294
151295
151295
151295
151295
151295
151295
151295
151295
151295
151295
151295
151295
151295
151295
151295
151295
151295
151295
151296
151295
151295
151295
151295
151295
151294
151294
151293
151293
151293
151294
151294
151293
151293
151294
151293
151294
151294
151293
151293
151294
151294
151294
151294
151294
151295
151294
151294
151294
151294
151294
151294
151293
151292
151294
151294
151293
151293
151294
151294
151293
151293
151292
151293
151293
151292
151292
151292
151292
151293
151293
151292
151293
151292
151292
151292
151291
151291
151291
151291
151290
151290
151290
151290
151290
151290
151290
151290
151290
151289
151290
151289
151289
151289
151289
150679
150678
150678
150677
150677
150676
150674
150673
150671
150669
150667
150664
150661
150658
150654
150650
150645
150640
150634
150628
150621
150614
150606
150598
150589
150579
150570
150559
150548
150537
150525
150512
150499
150486
150472
150458
150443
150428
150413
150397
150381
150366
150350
150335
150319
150303
150287
150272
150258
150243
150228
150214
150201
150189
150177
150165
150154
150144
150134
150126
150118
150110
150104
150098
150093
150089
150086