/*--------------------------------*- C++ -*----------------------------------*\
| =========                 |                                                 |
| \\      /  F ield         | OpenFOAM: The Open Source CFD Toolbox           |
|  \\    /   O peration     | Version:  v2012                                 |
|   \\  /    A nd           | Website:  www.openfoam.com                      |
|    \\/     M anipulation  |                                                 |
\*---------------------------------------------------------------------------*/
FoamFile
{
    version     2.0;
    format      ascii;
    class       volScalarField;
    location    "350";
    object      p_rgh;
}
// * * * * * * * * * * * * * * * * * * * * * * * * * * * * * * * * * * * * * //

dimensions      [1 -1 -2 0 0 0 0];


internalField   nonuniform List<scalar> 
65536
(
58386.7
58386.4
58385.9
58385.1
58384
58382.6
58380.8
58378.9
58376.6
58374.1
58371.2
58367.9
58364.2
58360.3
58356.1
58351.6
58346.6
58341.2
58335.3
58329
58322.1
58314.8
58306.8
58298.3
58289.2
58279.5
58269.4
58258.8
58247.7
58236.1
58224.1
58211.5
58198.6
58185.4
58171.8
58158
58144
58129.6
58115
58100.2
58085.4
58070.5
58055.6
58040.5
58025.6
58010.9
57996.3
57981.6
57967
57953.1
57939.9
57927.3
57914.6
57902.3
57890.9
57880.1
57870.2
57859.8
57850.3
57842.3
57834.8
57828.2
57822
57816.1
57812.3
57808.5
57805.4
57802.5
57800.3
57801.2
57801.8
57803.6
57806.3
57808.6
57810.9
57815.7
57818.6
57821.9
57828.3
57835.1
57842.8
57848.1
57852.5
57860.4
57869
57877.9
57887.3
57896
57906.7
57915.5
57926.4
57939.1
57951.5
57964.9
57978.9
57994.1
58010.3
58026.8
58042.8
58057
58070.7
58084
58095.7
58107.1
58118.4
58129
58138.6
58147.2
58154.9
58160.1
58161.8
58159.9
58155.2
58148.7
58141.2
58133.4
58125.6
58118
58110.6
58103.3
58096.3
58089.6
58083
58076.7
58070.6
58064.7
58058.9
58053.2
58047.7
58042.3
58037.1
58032.1
58027.4
58023
58018.8
58014.8
58011
58007.4
58003.9
58000.5
57997.2
57994
57990.8
57987.7
57984.8
57981.9
57979.3
57976.7
57974.4
57972.2
57970.3
57968.3
57966.6
57964.8
57963.2
57961.4
57959.7
57958
57956.3
57954.6
57952.9
57951.2
57949.6
57948
57946.5
57945
57943.7
57942.4
57941.2
57940
57939
57937.9
57936.9
57935.9
57935
57934.1
57933.3
57932.4
57931.8
57931.1
57930.5
57929.8
57929.3
57928.6
57928.1
57927.6
57927.2
57926.7
57926.4
57926
57925.7
57925.2
57924.9
57924.5
57924.2
57923.9
57923.6
57923.4
57923.3
57923.3
57923.5
57923.6
57923.8
57924
57924
57924.1
57924
57924
57923.9
57923.8
57923.5
57923.3
57923.1
57922.8
57922.5
57922.3
57922.1
57921.8
57921.6
57921.4
57921.4
57921.3
57921.3
57921.3
57921.2
57921.2
57921
57920.9
57920.7
57920.7
57920.6
57920.7
57920.7
57920.7
57920.7
57920.7
57920.8
57920.9
57921.1
57921.2
57921.4
57921.4
57921.6
57921.6
57921.8
57921.9
57922
57922.1
57922.2
57922.2
57922.1
57922
57921.9
57921.8
57921.6
57921.5
57921.3
57921.2
57921.1
57921.1
57921.2
57921.4
57921.7
57922
57922.4
57922.9
57923.3
57923.8
57924.2
57924.7
57925.1
57925.4
57925.8
57926.1
57926.5
57926.8
57927.2
57927.6
57928
57928.3
57928.6
57929
57929.4
57929.7
57930.1
57930.3
57930.6
57930.8
57931.1
57931.4
57931.6
57931.8
57931.9
57931.9
57931.8
57931.8
57931.5
57931.5
57931.2
57931.1
57930.8
57930.5
57930.2
57930
57929.7
57929.6
57929.2
57929.1
57928.9
57928.8
57928.7
57928.7
57928.8
57928.8
57928.9
57928.9
57929
57928.9
57928.9
57928.7
57928.4
57928.1
57927.5
57927
57926.4
57926
57925.5
57925.2
57924.9
57924.8
57924.6
57924.4
57924.3
57924.3
57924.3
57924.3
57924.3
57924.4
57924.4
57924.5
57924.5
57924.6
57924.6
57924.6
57924.6
57924.5
57924.4
57924.3
57924.2
57924.2
57924.2
57924.2
57924.2
57924.3
57924.2
57924.3
57924.2
57924.2
57924.1
57924.1
57924.1
57924
57924.1
57923.9
57923.9
57923.7
57923.6
57923.6
57923.6
57923.6
57923.7
57923.7
57923.8
57923.6
57923.4
57923.2
57923
57922.7
57922.6
57922.4
57922.2
57922
57922
57921.9
57922
57922.1
57922.3
57922.5
57922.8
57923.1
57923.4
57923.8
57924
57924.2
57924.2
57924.1
57924
57923.9
57923.7
57923.5
57923.3
57923.1
57923
57922.9
57923
57923
57923.2
57923.4
57923.6
57923.8
57924
57924.1
57924.1
57924.1
57924.2
57924.1
57924.1
57924
57924
57924
57924.1
57924.2
57924.2
57924.3
57924.4
57924.4
57924.4
57924.4
57924.2
57924.1
57923.9
57923.7
57923.4
57923.1
57922.8
57922.4
57921.9
57921.6
57921.4
57921.4
57921.3
57921.5
57921.6
57921.9
57922.1
57922.3
57922.4
57922.5
57922.5
57922.4
57922.2
57922.1
57921.9
57921.7
57921.5
57921.3
57921.2
57921.1
57921
57921
57921
57921
57921
57921
57920.9
57920.7
57920.6
57920.5
57920.4
57920.4
57920.6
57920.7
57920.9
57921
57921.2
57921.2
57921.3
57921.3
57921.2
57921
57920.7
57920.3
57920
57919.5
57919.2
57918.8
57918.6
57918.4
57918.3
57918.3
57918.3
57918.4
57918.4
57918.5
57918.6
57918.6
57918.6
57918.6
57918.5
57918.3
57918.2
57918
57917.9
57917.7
57917.6
57917.5
57917.5
57917.4
57917.5
57917.6
57917.6
57917.6
58381.3
58381.1
58380.5
58379.7
58378.6
58377.1
58375.4
58373.4
58371.2
58368.6
58365.7
58362.4
58358.8
58354.9
58350.7
58346.1
58341
58335.6
58329.7
58323.3
58316.5
58309.1
58301.1
58292.5
58283.4
58273.8
58263.7
58253.1
58242
58230.4
58218.3
58205.7
58192.9
58179.6
58166.1
58152.3
58138.3
58123.8
58109.1
58094.3
58079.4
58064.5
58049.4
58034.3
58019.5
58004.8
57990.1
57975.3
57960.8
57947.1
57933.8
57920.9
57908.1
57896.1
57884.8
57873.7
57863.2
57852.9
57844
57836.3
57828.5
57821.1
57814.9
57810.4
57807
57802.7
57798.9
57795.9
57794.5
57796
57797.3
57798.3
57800.7
57802.6
57806.9
57810.1
57812.3
57815.7
57823
57831.1
57838.2
57843
57847.4
57855.7
57864.6
57872.8
57882.1
57892.1
57901.1
57911.2
57921.7
57933.5
57946.1
57959.2
57973
57988.3
58004.4
58020.9
58037.4
58051.8
58064.6
58078.6
58090.5
58101
58111.9
58122.7
58131.2
58138.8
58145.7
58151
58152.5
58150.8
58146.5
58140.4
58133.3
58125.9
58118.6
58111.2
58104
58097.1
58090.2
58083.7
58077.3
58071.2
58065.2
58059.3
58053.7
58048
58042.6
58037.2
58032
58027.1
58022.4
58018
58013.7
58009.7
58005.9
58002.4
57998.9
57995.6
57992.3
57989.1
57985.9
57982.8
57979.9
57977
57974.4
57971.9
57969.6
57967.4
57965.4
57963.4
57961.7
57959.9
57958.1
57956.4
57954.8
57953
57951.5
57949.6
57948
57946.3
57944.7
57943.1
57941.7
57940.2
57938.9
57937.6
57936.5
57935.2
57934.2
57933.1
57932.2
57931.2
57930.3
57929.5
57928.6
57927.8
57927.3
57926.6
57926.1
57925.2
57924.7
57924.1
57923.7
57923
57922.6
57922.1
57921.8
57921.3
57921.1
57920.7
57920.3
57919.9
57919.6
57919.2
57918.9
57918.6
57918.5
57918.6
57918.6
57918.8
57919.1
57919.2
57919.3
57919.3
57919.2
57919.2
57919.1
57919
57918.8
57918.6
57918.4
57918.2
57917.9
57917.7
57917.4
57917.2
57917.1
57917
57916.8
57916.8
57916.7
57916.6
57916.5
57916.5
57916.3
57916.2
57916.1
57916.1
57916.1
57916.2
57916.2
57916.2
57916.2
57916.1
57916.2
57916.4
57916.4
57916.5
57916.6
57916.7
57916.9
57916.9
57917
57917.1
57917.3
57917.4
57917.5
57917.5
57917.4
57917.4
57917.4
57917.2
57917
57916.8
57916.6
57916.6
57916.4
57916.5
57916.5
57916.7
57916.9
57917.4
57917.7
57918.2
57918.7
57919.1
57919.6
57920.1
57920.4
57920.8
57921.1
57921.5
57921.8
57922.2
57922.5
57922.9
57923.2
57923.6
57923.9
57924.4
57924.7
57925.1
57925.3
57925.7
57926
57926.1
57926.4
57926.6
57927
57927.2
57927.3
57927.3
57927.3
57927.2
57927
57926.9
57926.6
57926.6
57926.3
57925.9
57925.7
57925.4
57925.1
57924.9
57924.5
57924.4
57924.2
57924.1
57924
57924
57923.9
57924.1
57924.1
57924.2
57924.1
57924.1
57924
57924
57923.6
57923.3
57922.7
57922.3
57921.7
57921.2
57920.7
57920.4
57920.1
57920
57919.8
57919.7
57919.6
57919.5
57919.5
57919.6
57919.6
57919.6
57919.9
57919.9
57920
57919.9
57919.9
57919.8
57919.7
57919.7
57919.6
57919.5
57919.4
57919.4
57919.5
57919.6
57919.6
57919.6
57919.7
57919.6
57919.6
57919.7
57919.6
57919.7
57919.5
57919.5
57919.5
57919.4
57919.2
57919.1
57918.9
57918.9
57918.9
57918.9
57919
57919.1
57919.1
57919
57918.9
57918.7
57918.4
57918.1
57918.1
57917.7
57917.6
57917.4
57917.3
57917.2
57917.3
57917.6
57917.8
57918.1
57918.3
57918.7
57918.9
57919.2
57919.5
57919.6
57919.6
57919.5
57919.4
57919.3
57919.1
57918.9
57918.8
57918.6
57918.5
57918.3
57918.4
57918.4
57918.6
57918.7
57919
57919.2
57919.3
57919.4
57919.5
57919.4
57919.5
57919.3
57919.3
57919.1
57919.2
57919.1
57919.2
57919.2
57919.4
57919.5
57919.6
57919.7
57919.7
57919.7
57919.5
57919.5
57919.4
57919.2
57919
57918.8
57918.4
57917.9
57917.6
57917.3
57917
57916.8
57916.8
57916.9
57916.9
57917.2
57917.5
57917.6
57917.9
57917.8
57917.9
57917.7
57917.6
57917.5
57917.4
57917.1
57917
57916.8
57916.6
57916.6
57916.4
57916.3
57916.4
57916.3
57916.3
57916.3
57916.3
57916
57916.1
57915.9
57915.8
57915.9
57915.9
57916
57916.3
57916.4
57916.6
57916.7
57916.7
57916.7
57916.7
57916.5
57916.2
57915.7
57915.4
57915
57914.8
57914.4
57914.2
57913.9
57913.9
57913.9
57913.9
57914
57913.9
57914.1
57914
57914.1
57914
57913.9
57913.9
57913.7
57913.6
57913.4
57913.4
57913.3
57913
57912.9
57912.8
57912.7
57912.8
57912.9
57912.9
57912.9
58371.2
58370.9
58370.3
58369.5
58368.4
58366.9
58365.2
58363.3
58361
58358.4
58355.4
58352.1
58348.6
58344.8
58340.5
58335.8
58330.7
58325.2
58319.2
58312.8
58305.8
58298.3
58290.3
58281.8
58272.7
58263
58252.9
58242.2
58231.1
58219.5
58207.4
58195
58182.2
58168.8
58155.3
58141.6
58127.4
58112.8
58098
58083.1
58068.2
58053.2
58038
58022.8
58008
57993.3
57978.5
57963.7
57949.4
57935.8
57922.6
57909.6
57897
57885.1
57873.8
57862.6
57852
57842
57833.5
57825.7
57817.6
57810
57804.2
57800.3
57796.5
57792
57788.7
57786.4
57785.8
57787
57788
57789.8
57792.1
57794.4
57797.9
57799.6
57802.3
57806.3
57815.2
57823
57830.6
57836.2
57839
57847.5
57856.8
57866.6
57874.6
57884.7
57893.4
57902.1
57912.5
57922.9
57936
57949.2
57962.4
57977.6
57993.2
58009.5
58026.8
58042.1
58054.2
58068.3
58079.5
58088.8
58098.9
58108.9
58117
58123.8
58129.2
58132.7
58135.2
58133.9
58130.1
58125
58118.7
58112
58105.2
58098.4
58091.9
58085.2
58079
58072.7
58066.7
58060.8
58054.8
58049.2
58043.8
58038.6
58033.2
58027.9
58022.8
58017.8
58013.1
58008.7
58004.5
58000.6
57996.8
57993.1
57989.7
57986.8
57983.3
57980.2
57977
57974
57971
57968.1
57965.5
57962.9
57960.7
57958.5
57956.4
57954.5
57952.6
57950.8
57949.1
57947.1
57945.4
57943.6
57942
57940.5
57939
57937.4
57935.9
57934.1
57932.7
57931.2
57929.9
57928.7
57927.8
57926.6
57925.7
57924.7
57923.8
57922.8
57922.1
57921.1
57920.3
57919.4
57918.9
57918.1
57917.7
57917.3
57916.5
57915.8
57915.2
57914.6
57914.2
57913.8
57913.4
57913
57912.6
57912.1
57911.7
57911.4
57911.3
57911
57910.7
57910.3
57910.3
57910
57910.3
57910.5
57910.8
57910.7
57910.9
57910.7
57910.6
57910.7
57910.6
57910.6
57910.4
57910.4
57910
57910
57909.6
57909.4
57909.2
57909.1
57908.7
57908.5
57908.5
57908.4
57908.2
57908.4
57908.3
57908.3
57908.2
57908
57907.9
57907.8
57907.8
57908
57907.7
57907.7
57908.1
57908.1
57907.8
57908
57908
57908.3
57908.3
57908.4
57908.7
57908.4
57908.5
57908.5
57908.7
57909
57909.1
57909
57908.9
57908.6
57908.5
57908.4
57908.3
57908.2
57908.2
57908.1
57908.2
57908.2
57908.4
57908.8
57909
57909.2
57909.7
57910
57910.3
57910.8
57911.2
57911.8
57912.1
57912.3
57912.6
57912.9
57913.3
57913.6
57914
57914.4
57914.9
57915
57915.3
57915.6
57916.2
57916.5
57917.2
57917.1
57917.4
57917.5
57917.8
57918.2
57918.4
57918.7
57918.9
57919
57918.7
57918.8
57918.6
57918.6
57918.5
57918.2
57918
57917.9
57917.3
57917.1
57916.9
57916.8
57916.4
57916.2
57915.7
57915.7
57915.6
57915.3
57915.4
57915.1
57915.3
57915.2
57915.5
57915.5
57915.5
57915.2
57915.1
57914.7
57914.4
57913.9
57913.4
57913
57912.4
57912.2
57911.9
57911.7
57911.6
57911.4
57911.2
57911.1
57911.1
57911.2
57911.1
57911.2
57911.1
57911
57911.1
57911.4
57911.4
57911.5
57911.4
57911.3
57911.2
57911.2
57911.3
57911.2
57911.3
57911.4
57911.4
57911.6
57911.6
57911.5
57911.3
57911
57911.1
57910.8
57911
57911.1
57911.3
57911.1
57911
57910.8
57910.9
57910.8
57910.7
57910.8
57910.9
57910.9
57911
57910.7
57910.4
57910.3
57910
57909.8
57909.6
57909.3
57909.3
57909.1
57909
57909
57909.1
57909.1
57909.3
57909.6
57909.8
57910.2
57910.4
57910.7
57910.8
57911
57911
57911
57910.9
57910.7
57910.8
57910.8
57910.7
57910.5
57910.3
57910.1
57910
57909.9
57910.3
57910.6
57910.7
57910.9
57911.1
57911.2
57911.1
57911.1
57911.1
57911
57910.9
57911
57910.8
57910.7
57910.8
57910.9
57911
57911.1
57911.2
57911.5
57911.2
57911.2
57911.1
57911.2
57911.1
57910.8
57910.6
57910.4
57910
57909.7
57909.3
57908.9
57908.7
57908.7
57908.7
57908.6
57908.8
57908.9
57909.2
57909.3
57909.4
57909.5
57909.4
57909.5
57909.3
57909.2
57909
57909.1
57909
57908.8
57908.5
57908.3
57908.2
57908
57908
57907.9
57908.4
57908.5
57908.3
57908.3
57908.2
57907.8
57908
57907.9
57908.2
57908.1
57908.3
57908.2
57908.1
57908.1
57908.3
57908.5
57908.4
57908.5
57908
57907.8
57907.5
57907
57906.5
57906.3
57906.1
57905.8
57905.7
57905.5
57905.6
57905.9
57905.8
57905.9
57905.9
57905.9
57905.9
57905.7
57905.5
57905.4
57905.2
57905
57904.6
57904.8
57904.5
57904.2
57904.2
57904.1
57904.1
57904.2
57904.1
57904.1
58354.7
58354.4
58353.9
58353
58351.9
58350.5
58348.8
58346.8
58344.5
58341.9
58339
58335.7
58332.2
58328.4
58324
58319.3
58314.1
58308.5
58302.5
58296
58288.9
58281.3
58273.3
58264.7
58255.6
58245.9
58235.7
58225
58213.8
58202.2
58190.1
58177.7
58164.8
58151.5
58137.9
58124.1
58109.8
58095.1
58080.4
58065.5
58050.4
58035.2
58019.9
58004.7
57989.7
57974.9
57960.1
57945.5
57931.3
57917.8
57904.6
57891.7
57878.9
57866.9
57855.4
57844.3
57834
57824.4
57815.7
57807.6
57799.9
57793
57787.4
57783.1
57778.9
57774.7
57772.1
57770.7
57770.6
57771.3
57772
57774.1
57776.4
57777.8
57780.5
57781.6
57785.3
57791.2
57799.9
57808.2
57815.9
57820
57825.5
57834.1
57844.5
57854.2
57862.4
57870.9
57881.1
57888.7
57897.7
57909.8
57922.3
57935.2
57947.4
57962.4
57979.2
57994.5
58011.4
58029.2
58040
58051.1
58066.3
58073.5
58079.1
58089.9
58095.9
58099.7
58107.2
58110
58110.7
58110.8
58107.9
58103.3
58098.2
58092.6
58086.6
58080.7
58074.7
58068.8
58063.1
58057.7
58051.9
58046.5
58041.2
58035.5
58030.3
58024.9
58020.2
58015.1
58010
58005.3
58000.4
57995.9
57991.6
57987.6
57983.9
57980.7
57977.4
57974.8
57971.2
57968.3
57964.9
57961.8
57958.6
57955.7
57952.8
57950.4
57948.2
57946
57944
57942.1
57940.5
57938.1
57936.4
57934.6
57932.8
57931.2
57929.4
57927.5
57926.3
57924.7
57923.2
57922
57920.8
57919
57917.8
57916.6
57915.2
57914
57913
57912.1
57911.4
57910.8
57910.2
57909.7
57908.8
57907.9
57907.6
57906.8
57906.2
57905.5
57904.8
57904
57903.5
57902.9
57902.4
57901.8
57901.6
57901.3
57901.4
57900.5
57900.3
57900
57899.2
57899
57898.9
57898.2
57898.2
57898.2
57898.3
57898.6
57899.1
57898.9
57898.7
57898.5
57898.7
57898.9
57899
57899.1
57898.9
57898.5
57898.5
57898.2
57897.8
57897.5
57897.5
57897.4
57897.7
57897.3
57896.9
57896.9
57896.9
57896.5
57896.3
57896.8
57896.2
57896.1
57896
57896.1
57896.3
57896.9
57896.8
57896.7
57896.3
57896.2
57896.6
57896.4
57896.3
57895.9
57896.2
57896.2
57897.1
57896.6
57896.9
57897
57897.2
57897.1
57897.7
57897.4
57897.2
57897.3
57897.2
57896.8
57896.7
57896.5
57896.2
57896.4
57896.2
57896.5
57896.6
57897.2
57897.3
57897.8
57898
57898.2
57898.7
57899
57899.6
57900.7
57900.5
57900.7
57900.8
57901
57901.3
57901.5
57902.3
57902.5
57902.8
57903.1
57903.8
57904.1
57904.4
57904.8
57905.4
57905.6
57905.5
57905.7
57905.7
57906
57906.6
57907.1
57907.6
57907.3
57907.5
57907.2
57907.1
57907.3
57906.8
57906.9
57907.2
57906.2
57906
57905.6
57905.4
57905.5
57904.7
57904.5
57904.4
57904.4
57903.9
57903.8
57903.2
57903.1
57903.1
57902.7
57902.5
57902.6
57902.8
57902.6
57902.7
57902.7
57902.2
57902.2
57901.3
57900.7
57900.5
57899.8
57899.6
57899.7
57900
57899.5
57899.3
57899.3
57899.3
57899.6
57899.3
57899.3
57899.6
57899.8
57900
57899.5
57899.4
57899.5
57899.2
57899.1
57899
57898.8
57899
57899
57899.2
57900.1
57899.5
57899.5
57899.4
57899.7
57899.6
57899.4
57899.2
57899.6
57899.5
57899.7
57900.3
57899.9
57900
57899.6
57899.2
57898.9
57899
57898.5
57898.8
57899
57899.5
57899.3
57899.2
57898.5
57898.2
57898
57898.2
57898.1
57897.5
57897.2
57897.5
57897.5
57897.7
57898.1
57898.5
57898.9
57899
57899
57898.9
57899.3
57899.7
57899.5
57899.1
57899.3
57899.1
57899.4
57899.3
57899.2
57899.3
57899.6
57898.8
57898.3
57898.4
57898.5
57898.7
57899
57899.3
57899.7
57899.6
57899.8
57899.7
57899.7
57899.9
57899.2
57899
57898.8
57898.7
57898.6
57898.6
57898.6
57898.6
57898.7
57899
57899
57899.3
57899.4
57899.3
57899.6
57900.1
57899.8
57899.4
57899.1
57898.6
57897.9
57897.8
57897.7
57897.4
57897.1
57896.8
57897
57897
57897.1
57897.7
57897.8
57898.3
57897.8
57897.8
57898.2
57897.7
57897.7
57897.7
57897.6
57898
57897.4
57897.1
57897
57896.6
57896.9
57896.9
57897.1
57896.9
57896.8
57896.8
57896.7
57896.2
57896.5
57896.3
57896.5
57896.9
57896.6
57897.1
57896.6
57896.8
57896.3
57896.6
57896.5
57896.8
57897.2
57896.7
57896.1
57895.8
57895.2
57894.9
57894.2
57894
57894.3
57894.1
57894.4
57894.8
57895.1
57894.6
57894.6
57894.6
57894.7
57894.4
57894.1
57894.1
57893.7
57893.4
57893.5
57893.3
57893.8
57893
57892.6
57892.4
57891.8
57892.3
57892.6
57892.4
57892.4
58332
58331.7
58331.2
58330.3
58329.2
58327.8
58326.1
58324.2
58321.8
58319.2
58316.2
58313
58309.5
58305.6
58301.1
58296.3
58291.1
58285.5
58279.4
58272.8
58265.6
58257.9
58249.8
58241.1
58231.9
58222.2
58212
58201.2
58190
58178.3
58166.3
58153.8
58140.9
58127.5
58113.9
58099.8
58085.4
58070.8
58056
58041
58025.8
58010.4
57995.1
57979.8
57964.7
57949.7
57934.9
57920.5
57906.6
57893.2
57880
57867
57854.3
57842.1
57830.6
57819.7
57809.6
57800.3
57791.7
57783.6
57776.4
57769.7
57764.5
57759.8
57755.9
57752.8
57750.8
57749.6
57749.3
57750
57751.3
57753.7
57755.8
57757.7
57760.7
57763.1
57767.5
57775.4
57784.3
57791.3
57798.1
57803.1
57810.8
57820.3
57830.8
57837.5
57847.4
57856.4
57865.6
57872.1
57881
57894
57905.1
57918.2
57931.3
57942.7
57960.1
57977.7
57990.3
58007.2
58023.1
58029.9
58039.7
58052
58057.6
58062.3
58069.5
58071.1
58074.8
58080.9
58082.2
58081.2
58079.9
58076.8
58072.4
58067.6
58063.1
58058
58053.2
58047.9
58042.9
58038.4
58032.8
58028.1
58022.9
58017.3
58012.8
58007.8
58003.5
57997.8
57993
57987.8
57983.5
57979.6
57975.1
57971.1
57966.8
57963.6
57960.6
57958.1
57954.8
57952.4
57949
57946.6
57943.1
57940
57937.4
57934.9
57933.2
57931
57929.2
57926.8
57925.5
57922.8
57920
57918.4
57917.2
57915.3
57914
57912.5
57910.8
57909.5
57907.7
57906.4
57906
57904.4
57903.2
57902.2
57901
57899.7
57898.6
57897.5
57896.7
57895.7
57895.9
57895.2
57893.5
57892.8
57893.1
57891.9
57892.2
57891.5
57890.2
57889.7
57889.8
57888.3
57887.6
57887.5
57887.5
57887
57886.9
57885.3
57885
57885.3
57884.9
57884.6
57884
57883.7
57882.9
57882.8
57882.8
57883
57884
57883.6
57883.9
57883
57883.4
57883.4
57883.5
57884.1
57883.6
57883.8
57884.3
57884.1
57883.2
57883
57883.1
57882.8
57883.6
57882.5
57882.2
57882.4
57882.7
57882.1
57881.8
57882.2
57881.9
57881.9
57881.9
57881.5
57881.6
57881.9
57881.8
57881.3
57882.3
57881.6
57881.4
57881.7
57881.2
57881.3
57881.3
57881.5
57882
57881
57880.9
57881.3
57881.7
57882.2
57882.9
57882.6
57882.7
57882.3
57882.6
57882
57881.8
57881.6
57881.8
57881.9
57881.8
57881.9
57882.1
57883.3
57883
57884
57883.8
57884
57883.9
57884.2
57884.7
57886
57885.9
57885.8
57885.9
57886.4
57887
57887.1
57887.1
57887.3
57888
57887.9
57887.9
57889.1
57889.4
57889.7
57891
57890.7
57890.9
57890.8
57891.3
57891.5
57892
57892.3
57892.8
57892.4
57892.8
57892.2
57891.9
57892.5
57892.1
57892.1
57892.9
57891.4
57891
57890.6
57890.9
57891
57890
57890
57889.1
57889.6
57888.7
57888.9
57887.7
57887.6
57887.5
57887.8
57887.6
57887.7
57888.2
57888.5
57887.6
57887.4
57887
57887.3
57886.2
57885.7
57885.1
57885.2
57885.1
57885
57885.2
57884.5
57884
57883.8
57883.8
57884.7
57884.2
57884.3
57884.8
57884.7
57884.9
57884.9
57884.8
57884.5
57883.8
57883.9
57884.2
57884.3
57884.5
57884.7
57885.3
57886.6
57885.8
57885.2
57885.3
57884.2
57884.8
57885
57885.4
57885.4
57884.9
57885.1
57886.2
57885.4
57885.2
57884.6
57884.8
57884.6
57884.4
57884.6
57885.2
57885
57885.7
57885.4
57884.5
57884.8
57884.3
57883.4
57883.8
57883
57883.1
57883
57882.8
57882.8
57883.6
57884.2
57884.1
57884.9
57884.5
57884.5
57884.7
57884.9
57885.1
57885.1
57885.3
57884.9
57884.9
57884.8
57884.9
57885
57885.2
57885.5
57884.7
57883.9
57883.3
57883.4
57883.8
57884.9
57884.7
57885.3
57885.1
57885.5
57884.8
57884.6
57885.3
57884.2
57884
57884.7
57884.5
57883.7
57883.6
57883.8
57884.2
57884.8
57884.7
57885.5
57884.8
57884.7
57884.4
57884.6
57885.3
57884.5
57884.3
57885
57884.2
57883.8
57883.9
57883.4
57882.9
57882.6
57882.4
57881.8
57881.7
57882.3
57883.1
57882.9
57883.8
57882.9
57883
57884
57882.9
57883.1
57882.9
57883.5
57883.7
57882.6
57882.4
57882.3
57881.8
57881.3
57881.7
57881.6
57882.1
57883
57882.7
57882.4
57882.2
57881.9
57881.8
57881.8
57882.9
57881.3
57882.3
57881.6
57881.8
57882
57881.5
57882
57882.1
57882.1
57881.5
57881.2
57881.8
57881.2
57881.1
57881.3
57880.4
57879.2
57879.4
57879.5
57880.6
57880.5
57879.9
57880.3
57880
57880.3
57879.7
57879.2
57879.1
57879.3
57879
57878.6
57878.8
57879.2
57877.9
57877.8
57877.5
57877.3
57877.7
57878.3
57877.4
57877.2
58302.4
58302.1
58301.5
58300.7
58299.6
58298.2
58296.5
58294.6
58292.2
58289.6
58286.6
58283.4
58279.8
58275.8
58271.3
58266.5
58261.2
58255.4
58249.2
58242.5
58235.2
58227.4
58219.2
58210.4
58201.1
58191.4
58181.2
58170.3
58159.1
58147.4
58135.3
58122.7
58109.7
58096.3
58082.6
58068.4
58053.9
58039.2
58024.2
58009
57993.7
57978.3
57963.1
57947.8
57932.5
57917.2
57902.4
57888.3
57874.4
57860.8
57847.5
57834.5
57821.8
57809.8
57798.6
57787.9
57777.6
57768.2
57759.9
57752.5
57745.9
57739.5
57733.7
57728.9
57725.9
57723.4
57721.9
57721.4
57721.7
57722.9
57724
57726.6
57728.3
57731.3
57734.1
57738.8
57744.3
57752.5
57759.1
57765.2
57773.2
57781
57789.2
57798.7
57806.3
57815.1
57825.6
57836.7
57845
57852.5
57862.4
57873.8
57885.2
57895.6
57909.6
57921.3
57933.3
57953
57969.8
57978.7
57994.3
58010.3
58014.8
58018.1
58027.9
58031.2
58033.3
58041.1
58042
58043.3
58048.2
58048.1
58046.4
58044.8
58042.4
58039.3
58035.5
58031.7
58028
58022.7
58018.6
58013.5
58009
58004.7
58000.1
57995.9
57992.2
57986.6
57982.6
57977.2
57973
57968.2
57964.2
57959.7
57955.3
57951.3
57947.7
57944.5
57940.7
57937.7
57934.7
57932.1
57930.2
57927.6
57924.1
57921.6
57918.3
57916.1
57914.4
57911.9
57910.2
57907.3
57904.9
57903.4
57901.9
57900.1
57898.9
57896.6
57895.6
57893.4
57892.1
57891.3
57889.3
57887.8
57887
57885.3
57884.3
57882.2
57881.7
57880.3
57879.9
57878.9
57878.7
57878.2
57878.1
57875.8
57875.3
57874.4
57874.3
57873.2
57872.7
57873.4
57871.9
57871.9
57872.8
57870.8
57869.6
57869.5
57870
57868.8
57868.4
57866.9
57866.4
57866
57866.3
57867.2
57867.1
57867
57864.9
57864.3
57865.2
57864.9
57865.1
57865.1
57865.8
57865.5
57865.8
57865.9
57865.5
57865.5
57865.8
57865.1
57864.9
57865.3
57864.9
57865.1
57865.8
57865.1
57864
57864
57863.9
57864.2
57864
57863.9
57863.1
57863.3
57863.7
57864.5
57864.8
57863.5
57863.1
57863.5
57863.9
57864.4
57864.8
57863.8
57863.9
57863.5
57863.4
57863.3
57863.2
57862.6
57863.2
57863.7
57863.7
57863.9
57864.7
57864.1
57864.3
57865.3
57865.6
57864.7
57865.5
57864
57864.4
57863.7
57863.8
57865
57864.9
57864.6
57864.6
57865.9
57865.2
57865.1
57865.9
57866.7
57866.2
57866.6
57866.6
57866.8
57868.5
57868.3
57867.6
57867.7
57868.8
57868.6
57869.3
57869.2
57870.3
57870
57870.3
57871.9
57871.3
57871.9
57873.4
57873.6
57873.1
57873.1
57874
57873.6
57874.7
57874.7
57873.5
57873.3
57873
57873.5
57873.5
57873.8
57873.9
57874.3
57874.5
57874.2
57873.4
57873.3
57873.3
57871.6
57871.6
57871.9
57870.4
57870.7
57869.9
57869.3
57869.5
57869.5
57869.4
57869.3
57869.7
57870
57870.6
57871.5
57869.7
57869.5
57868.4
57868.2
57868.1
57867.9
57867.4
57866.9
57867.2
57866.6
57866.6
57866.4
57866.1
57866.3
57865.8
57865.6
57866.1
57866.1
57866.6
57866.7
57867.7
57866.9
57867.1
57867.2
57866.4
57866.4
57865.8
57866.1
57866.8
57866.4
57867.1
57868.1
57868.3
57867.7
57867.6
57867.4
57867.5
57866.7
57867.2
57868.2
57866.9
57866.8
57868.1
57867.8
57868.8
57867.9
57868
57866.9
57867.5
57867.2
57867.9
57867.2
57867.6
57868.1
57867.6
57867.7
57866.3
57866.7
57865.5
57864.8
57865.4
57865.4
57866
57866.3
57866.4
57867.6
57866.8
57867.1
57866.9
57867.3
57867.1
57867.2
57868.5
57868.1
57868.9
57867.7
57867.9
57867.6
57867.4
57867.8
57867.4
57866
57866.2
57865.3
57865.8
57866.2
57867
57868.1
57867
57866.7
57867
57867.3
57866.7
57866.8
57867.2
57866.5
57866.1
57867.2
57867.1
57865.9
57865.8
57866.6
57866.7
57867.8
57867.5
57868.7
57867.6
57867.6
57866.5
57866.5
57866.1
57866.5
57866.2
57866.4
57865.5
57865.4
57864.3
57866
57865.4
57865.5
57864.7
57863.7
57864.1
57864.6
57864.5
57864.3
57865.1
57865.2
57863.9
57865.3
57864.7
57865.6
57865
57865.9
57864.7
57864.9
57865.3
57865.3
57864
57864.5
57865
57864.1
57865.7
57866.4
57865.8
57865.8
57865.2
57865
57864.3
57864.4
57864.9
57863.4
57863.1
57863.2
57864.2
57863.4
57863.9
57863.8
57863.9
57864.3
57863.8
57863.7
57864.3
57863.3
57863.7
57864.9
57863.6
57862.2
57862.4
57861.2
57861
57861
57861.5
57862
57862
57862.3
57862.1
57861.9
57862.2
57862.5
57861.2
57861
57859.8
57859.1
57859.7
57859.3
57860
57860.6
57860.4
57860.6
57859.8
57859.8
58265.8
58265.5
58265
58264.1
58263
58261.6
58259.9
58258
58255.7
58253
58250.1
58246.9
58243.3
58239.2
58234.6
58229.6
58224.4
58218.5
58211.9
58205.2
58197.9
58190.1
58181.6
58172.6
58163.1
58153.3
58143
58132.2
58120.8
58108.8
58096.5
58083.9
58070.9
58057.6
58043.7
58029.1
58014.2
57999.4
57984.5
57969.2
57953.7
57938.2
57923
57907.8
57892.3
57876.9
57862.2
57848.3
57834.7
57821
57807.4
57794.4
57781.9
57770.4
57759.9
57749.6
57739.5
57730
57721.7
57715.1
57709
57703.1
57697.4
57693.3
57690.9
57688.8
57687.8
57687.6
57688.6
57689.9
57691.3
57693.4
57696.1
57699.3
57703.7
57709.7
57715.1
57722.8
57729.2
57736.3
57745.7
57755.5
57763.4
57771.8
57779.1
57790.7
57800.9
57810.2
57818.3
57828.5
57837.3
57847.8
57860.8
57869.6
57879.1
57895.3
57908.7
57919.9
57939.3
57953.8
57958.9
57971.1
57984.5
57987.6
57990.9
57995.8
57992.4
57996.2
58005.7
58005.6
58006.6
58010.1
58009.8
58009
58007.4
58005.5
58003.3
58000.8
57998.4
57994.3
57991.3
57985.6
57981.5
57977.1
57974.8
57969.7
57966.3
57961.6
57956.1
57952.6
57949.9
57945.5
57941.3
57936.4
57931.6
57928.3
57924.3
57921.3
57917.8
57914.3
57911.9
57908.8
57907.2
57903.9
57902.1
57900.3
57896.7
57893.7
57891.4
57889.9
57886.6
57884.9
57882.9
57881.9
57879.9
57879.1
57876.6
57874.7
57873.3
57871
57870.1
57868.8
57867.1
57865.6
57864.1
57864.4
57862.3
57860.8
57860.9
57859.1
57859.1
57857.7
57856.7
57855.7
57855.3
57853.3
57852.9
57852.8
57852.7
57852.7
57851.4
57849.8
57850
57851
57850.9
57849
57849
57848.2
57848.5
57847.4
57845.8
57845.1
57844
57843.6
57843.6
57843.8
57844.6
57843.1
57843.6
57844
57845
57843.2
57842.5
57843.7
57843
57844.6
57844.9
57844.8
57843.6
57843.4
57844.3
57843.2
57842.7
57842.6
57843.7
57842.9
57843.4
57844.5
57842.9
57843.6
57843.5
57842.8
57842
57842.9
57841.5
57841.5
57842.9
57842.7
57843.7
57842.6
57842
57842
57843.4
57844.1
57842.3
57842.4
57842.6
57842.5
57842.3
57842
57842.4
57842.4
57841.5
57843.1
57843.4
57843.9
57844.5
57843.2
57842.7
57844
57843.2
57843.7
57844.4
57843.1
57844.2
57843.3
57843.3
57844.5
57843.4
57843.9
57843.4
57844.4
57843.6
57843.3
57844
57844.2
57844.8
57844.8
57844.6
57845.2
57847.5
57847.9
57847.3
57846.8
57846.7
57847.1
57848.7
57848
57848.2
57849.1
57850.1
57850.8
57850.2
57850.8
57851.9
57852.9
57852.7
57852.3
57851.8
57852.8
57853.7
57853.9
57852
57851.5
57851.4
57852.4
57852.2
57852.4
57852.8
57853.8
57852.2
57851.2
57851.9
57852.2
57851.2
57849.7
57850
57848.2
57848.4
57847.9
57847.4
57848
57849.7
57848.9
57848.5
57849.8
57850.4
57849.1
57849.2
57849.2
57847.9
57848.3
57846.5
57846.1
57846.2
57847.3
57846.5
57846.5
57846.2
57845.8
57845.1
57845.4
57845.1
57845.6
57844.5
57844
57845.2
57845.1
57845.4
57846.5
57847.8
57847.1
57846.8
57846.6
57846
57845.5
57845.4
57845.9
57845.9
57845.4
57845.5
57845.1
57845.4
57845.4
57846.7
57846.8
57847.3
57846.7
57847.3
57847.5
57846.3
57846.2
57845.9
57847
57847.6
57846.4
57845.7
57846.5
57846.9
57845.8
57846
57847.1
57846.5
57845.5
57847.1
57846.1
57845.7
57847.1
57844.8
57845.4
57846.1
57845.7
57846.2
57847.9
57846.3
57847
57846.2
57846.2
57847.3
57847.7
57847
57847.4
57848.3
57847.6
57846.3
57845.8
57846.1
57847.1
57847.4
57846.9
57846.2
57845.2
57844.8
57844.5
57844.2
57845.4
57846.3
57846.4
57845.2
57844.5
57845.1
57844.7
57845.3
57845.5
57845.5
57844.9
57843.8
57843.1
57843.2
57844.3
57844.8
57846.3
57845.3
57846.4
57845.5
57846.1
57846.6
57846.8
57845.5
57845.4
57845.6
57845.1
57844.8
57844.8
57845
57845.5
57844.2
57845.6
57845.1
57845.8
57845.2
57843.4
57842.5
57842.3
57841.8
57842.4
57842.6
57844.3
57842.7
57842.2
57842.5
57843.5
57843.5
57844.1
57842.7
57843.2
57842.8
57844
57843.5
57844.4
57845.1
57844.7
57846
57844.7
57845.8
57846.2
57844.7
57844.5
57842.6
57842.6
57841.1
57841.6
57841.2
57842.3
57844.1
57843.3
57844
57843.4
57843.5
57842.7
57842.4
57841.6
57841.5
57842.5
57843
57842.7
57841.8
57842.1
57841
57840.2
57839.5
57838.9
57839.5
57839.7
57840.1
57840.9
57840.6
57840.5
57841.8
57842.1
57841.4
57841.8
57840.6
57839.9
57839.2
57838.9
57839.2
57839.2
57838.6
57839.4
57838.6
57839.3
58221.7
58221.4
58220.9
58220
58218.9
58217.4
58215.8
58213.8
58211.4
58208.7
58205.7
58202.4
58198.7
58194.6
58189.8
58184.8
58179.5
58173.5
58166.9
58160
58152.7
58144.8
58136.3
58127.2
58117.7
58107.8
58097.5
58086.6
58075.2
58063.2
58050.8
58038.1
58025.1
58011.7
57997.7
57983
57968.1
57953.1
57938
57922.7
57907.1
57891.7
57876.4
57861.3
57845.8
57830.6
57816
57802
57788.4
57774.7
57761.1
57748.2
57736.2
57724.8
57714.2
57704.1
57694.6
57685.9
57678
57671
57664.8
57659.6
57655
57651.6
57648.9
57647
57647
57647.8
57649.2
57650.6
57652.7
57655
57658.5
57663.4
57669.3
57675
57681.2
57688
57694.8
57703.7
57712.3
57722.3
57729.9
57738.5
57748.4
57759.8
57770.6
57779.6
57788.2
57797.8
57808.8
57818.7
57829.5
57841.1
57848.2
57858
57877.2
57890
57899.6
57915.9
57929.6
57933.5
57936.9
57944.5
57947.9
57952.6
57954.6
57951.6
57956.1
57963.8
57964.5
57966.2
57968.6
57969.4
57969.8
57969.6
57969.1
57967.7
57964
57961
57959.1
57953.8
57949.8
57945.1
57942.8
57938.8
57934
57932
57926.5
57922.1
57920.7
57916.8
57912.3
57909.3
57905.4
57902.2
57898.3
57893.4
57890.6
57886.6
57884
57881.3
57880.5
57877.8
57877.1
57874.9
57871.3
57868.6
57866
57865
57862.7
57861.3
57858.7
57857.6
57855