/*--------------------------------*- C++ -*----------------------------------*\
| =========                 |                                                 |
| \\      /  F ield         | OpenFOAM: The Open Source CFD Toolbox           |
|  \\    /   O peration     | Version:  v2012                                 |
|   \\  /    A nd           | Website:  www.openfoam.com                      |
|    \\/     M anipulation  |                                                 |
\*---------------------------------------------------------------------------*/
FoamFile
{
    version     2.0;
    format      ascii;
    class       surfaceScalarField;
    location    "350";
    object      phi;
}
// * * * * * * * * * * * * * * * * * * * * * * * * * * * * * * * * * * * * * //

dimensions      [1 0 -1 0 0 0 0];
oriented        oriented;


internalField   nonuniform List<scalar> 
130432
(
41.6321
-41.3843
84.6862
-42.9458
130.728
-45.9302
173.929
-43.0932
217.194
-43.1517
263.479
-46.156
307.669
-44.0736
350.508
-42.7127
393.122
-42.4722
437.229
-43.9492
485.152
-47.7406
533.011
-47.6712
577.274
-44.0723
619.21
-41.7252
662.857
-43.4089
710.295
-47.1744
759.396
-48.8202
810.721
-51.0221
861.432
-50.3853
909.852
-48.072
959.957
-49.7315
1012.14
-51.7848
1065.36
-52.8058
1120.16
-54.3701
1172.95
-52.3402
1222.75
-49.3376
1273.39
-50.1682
1323.21
-49.3475
1372.46
-48.7618
1426.26
-53.3187
1480.7
-53.9599
1528.46
-47.2914
1575.89
-46.9622
1627.24
-50.895
1676.22
-48.5267
1721.88
-45.2105
1767.98
-45.6545
1814.51
-46.083
1861.82
-46.858
1910.19
-47.9176
1956.92
-46.2735
2003.39
-46.0147
2055.4
-51.5532
2108.03
-52.1704
2152.62
-44.1379
2195.51
-42.4275
2247.43
-51.4717
2301.27
-53.3956
2338.45
-36.7596
2358.27
-19.3922
2383.07
-24.3628
2430.21
-46.7261
2481.85
-51.2494
2508.07
-25.8536
2514.34
-5.85132
2538.04
-23.2597
2599.07
-60.6283
2659.64
-60.2384
2674.62
-14.7797
2664.72
10.2415
2686.66
-21.6058
2748.28
-61.374
2796.43
-48.2555
2801.33
-5.1965
2799.82
1.50264
2832.47
-32.5336
2893.99
-61.3134
2948.16
-53.9058
2952.18
-3.96412
2897.48
54.9333
2848.03
49.5232
2872.45
-24.1102
2942.71
-69.6334
2981.19
-37.5469
2979.31
1.92662
2999.07
-19.6024
3063.43
-64.7709
3103.99
-40.8196
3059.38
44.5591
2994.31
65.4955
3020.59
-25.9114
3118.92
-99.2511
3160.3
-42.6172
3113.79
46.3997
3082.05
32.3796
3113.53
-31.1557
3150.65
-36.9476
3151.05
-0.289996
3140.95
9.77313
3148.93
-9.74082
3162.38
-14.7612
3159.51
2.77656
3141.85
17.4093
3121.6
19.7019
3101.41
19.351
3069.35
30.9054
3016.35
51.5648
2951.49
63.1683
2888.05
61.438
2829.02
56.6969
2768.83
57.5326
2705.42
60.3024
2640.44
61.4743
2574.75
61.9022
2502.06
68.6193
2414.96
82.7974
2312.37
98.3406
2193.01
115.341
2061.85
127.463
1925.8
132.741
1790.18
132.643
1663.19
124.38
1548.18
112.809
1445.79
100.647
1355.53
88.9712
1275.67
78.977
1204.94
70.1593
1140.92
63.6396
1080.26
60.4123
1025.22
54.8981
977.146
47.9981
930.892
46.2328
887.152
43.747
848.463
38.7166
813.03
35.4836
780.671
32.3835
750.585
30.0736
722.033
28.5263
694.689
27.3175
668.275
26.3775
644.652
23.5873
622.809
21.8163
600.941
21.8508
578.323
22.6054
557.716
20.6057
539.505
18.2056
521.354
18.1473
502.042
19.313
482.379
19.6574
464.375
17.9688
447.002
17.3535
430.532
16.4508
414.792
15.7197
399.34
15.4362
384.92
14.394
371.989
12.9003
359.954
11.997
348.519
11.3938
337.696
10.7781
327.223
10.4268
317.759
9.42521
309.627
8.09154
302.296
7.30413
295.223
7.05041
288.304
6.91069
280.333
7.96707
271.225
9.10102
262.158
9.05957
254.697
7.43394
247.64
7.01671
240.752
6.82455
235.398
5.27473
230.665
4.64993
225.708
4.87404
220.362
5.26999
215.215
5.06435
208.558
6.58242
200.374
8.10835
191.442
8.84697
182.997
8.3593
177.605
5.29038
173.308
4.19505
168.639
4.55384
163.17
5.3556
157.01
6.03027
151.893
4.9908
147.816
3.95716
144.153
3.54167
140.607
3.42834
137.712
2.77797
135.589
2.00211
132.904
2.57296
130.638
2.15994
127.96
2.57813
124.199
3.65564
120.88
3.24053
118.082
2.71152
115.282
2.721
111.927
3.26418
107.815
4.03051
103.339
4.41242
98.9011
4.36877
95.1507
3.6902
92.4477
2.64045
89.9296
2.44931
88.1252
1.73592
87.4269
0.644582
86.7905
0.575262
85.4677
1.26162
82.901
2.51454
79.3585
3.49622
76.5549
2.75757
75.1859
1.33405
73.9826
1.17012
73.1222
0.82825
70.8255
2.27667
66.9108
3.90079
62.9186
3.9767
60.4025
2.50096
59.4121
0.982583
58.4832
0.917614
58.0362
0.426503
58.2763
-0.253719
58.1311
0.102803
56.704
1.3868
56.0844
0.56516
55.3128
0.700736
53.7067
1.52607
50.8692
2.75751
46.2704
4.51241
43.3909
2.79726
42.6366
0.67856
42.8673
-0.284563
43.4073
-0.598741
43.6788
-0.32609
44.337
-0.708486
45.4907
-1.19913
46.2748
-0.823963
45.9711
0.269005
44.2821
1.65971
42.5598
1.69506
43.0332
-0.504366
43.0431
-0.0331541
40.555
2.47026
37.5123
3.00568
34.8682
2.6213
32.5033
2.35625
31.8338
0.650916
32.5376
-0.717779
32.6403
-0.138578
33.424
-0.817785
34.2436
-0.860718
33.5733
0.633508
32.4027
1.14422
31.0616
1.31915
29.8958
1.15418
29.6065
0.282903
28.9596
0.642327
28.2414
0.724779
27.5464
0.711438
25.8097
1.75906
24.1182
1.72598
22.7281
1.42958
21.8306
0.952589
22.9429
-1.04203
23.3907
-0.376916
21.8302
1.64134
21.2296
0.69028
20.2674
1.053
19.0822
1.2813
19.697
-0.519489
19.081
0.701456
17.2291
1.9349
15.6956
1.62053
13.9321
1.83364
12.2534
1.73434
10.7373
1.5629
10.8447
-0.0722304
12.6817
-1.81248
13.8569
-1.16654
14.1905
-0.325387
14.984
-0.77771
14.9999
-0.000337544
14.1209
0.899061
13.0811
1.06195
12.6607
0.444097
12.8779
-0.191594
13.2557
-0.357496
13.7154
-0.446031
14.3694
-0.637804
14.6709
-0.290264
13.5682
1.10688
10.7993
2.75598
7.58133
3.19294
6.13713
1.39439
6.3167
-0.223513
7.56907
-1.30608
8.77888
-1.25748
9.60724
-0.891721
9.1942
0.342579
8.13781
0.97721
7.83429
0.225934
7.84445
-0.0951209
7.45359
0.313461
6.72068
0.667138
5.40078
1.2588
3.64458
1.71035
2.22315
1.39318
1.25524
0.931654
0.917431
0.322133
0.314218
0.598409
-0.401421
0.69271
0.0122263
-0.422241
1.38469
-1.3661
4.51371
-3.14055
8.52045
-4.02081
9.67508
-1.16718
9.14555
0.512421
7.80134
1.33292
5.87978
1.91543
4.59259
1.28342
5.34385
-0.742266
5.15322
0.201211
4.17834
0.987186
4.13974
0.0498341
4.24447
-0.100358
3.50474
0.734001
2.59785
0.884132
2.98887
-0.42394
1.94072
0.98947
0.170132
1.71725
-1.17313
1.2797
-2.19531
0.940153
-1.82209
-0.458986
-0.412679
-1.50077
0.605605
-1.11063
2.0353
-1.51546
4.51331
-2.55542
8.10753
-3.66139
12.9535
-4.89672
16.206
-3.29443
16.1485
0.0201672
15.1543
0.965224
13.4151
1.72701
10.8973
2.50689
8.74647
2.1518
6.58568
2.1638
5.103
1.47497
3.86869
1.22476
3.27044
0.579861
3.34242
-0.0963567
3.66171
-0.354695
4.16787
-0.539694
4.59741
-0.453249
5.61646
-1.03407
6.41832
-0.81174
6.06632
0.34784
5.62303
0.447081
6.2769
-0.644031
7.58303
-1.28531
8.26711
-0.655472
7.94448
0.357525
6.7816
1.18401
5.82938
0.967216
6.01604
-0.187027
6.02872
-0.00147864
6.64352
-0.598859
8.15379
-1.49072
8.75115
-0.586516
8.87109
-0.109778
8.63369
0.232758
7.71207
0.890785
6.79712
0.881873
6.26077
0.474298
6.15115
0.0516471
5.52177
0.559191
4.5529
0.88771
3.64588
0.808738
2.94055
0.600965
2.58512
0.234638
2.14007
0.311863
2.83705
-0.831754
3.36326
-0.65383
3.44093
-0.188449
4.05254
-0.694159
4.6462
-0.674806
5.2674
-0.672217
5.81719
-0.571324
7.3367
-1.5337
7.06808
0.258973
4.69359
2.35607
3.46333
1.20973
2.68874
0.757195
1.79374
0.88011
1.66112
0.108861
1.72339
-0.093614
1.93207
-0.233378
1.29467
0.607816
0.718558
0.542807
1.65447
-0.975467
2.22785
-0.614014
2.72591
-0.535083
2.25445
0.437956
0.693915
1.52038
-0.52084
1.1659
-2.17274
1.60676
-3.75948
1.53709
-4.85082
1.04008
-4.99827
0.0863298
-4.51129
-0.556706
-4.20027
-0.395053
-3.74808
-0.542184
-1.88062
-1.94175
1.29888
-3.24016
2.83218
-1.57631
1.7986
1.01054
1.0658
0.717213
1.72096
-0.659832
3.87071
-2.14442
7.08437
-3.20665
8.45397
-1.35732
8.29551
0.172823
7.46483
0.837056
6.03137
1.44364
3.72543
2.30759
2.1094
1.61315
2.78746
-0.692538
4.00258
-1.23505
5.09354
-1.10739
4.9866
0.0934871
4.23167
0.744994
3.82559
0.408928
3.77933
0.0528343
3.00631
0.785431
1.05982
1.96465
-1.26573
2.3284
-4.19652
2.95095
-6.68789
2.5061
-8.08529
1.40118
-8.98831
0.885924
-9.80425
0.779812
-10.2003
0.33887
-9.61633
-0.659643
-9.89872
0.192306
-9.58227
-0.436021
-7.25685
-2.45657
-5.77245
-1.62309
-3.78558
-2.12532
-1.75284
-2.17571
-0.193726
-1.70701
0.49263
-0.830495
1.41611
-1.0567
3.21254
-1.91897
4.45583
-1.35747
6.16031
-1.82101
8.12351
-2.06713
9.66256
-1.63376
10.5618
-1.00211
10.2595
0.186371
9.68475
0.477139
9.93789
-0.357683
10.0456
-0.20499
9.94851
0.00813601
8.63778
1.21989
6.78242
1.76951
5.08728
1.60968
2.88328
2.12423
0.123769
2.69055
-1.4108
1.47259
-0.91132
-0.541187
-0.822461
-0.140618
-2.04103
1.16793
-3.29014
1.18543
-3.69208
0.322835
-4.45577
0.675255
-4.71806
0.179726
-3.55518
-1.25418
-2.16511
-1.46014
-0.384367
-1.84781
1.95054
-2.38858
3.63701
-1.72716
3.50607
0.101838
2.52758
0.954391
0.914279
1.60572
-1.23769
2.15906
-3.59569
2.36362
-5.33833
1.75155
-6.51565
1.17691
-6.54252
0.0254569
-4.35762
-2.1785
-3.35077
-0.999758
-1.62655
-1.73013
1.78582
-3.42163
2.99576
-1.22663
3.41438
-0.430602
2.89585
0.494797
1.37089
1.50131
0.504607
0.834465
-0.100661
0.569387
-1.78414
1.63935
-1.51166
-0.320045
1.2781
-2.85458
1.49127
-0.271287
-0.581798
2.02325
-2.4578
1.83587
-3.42603
0.946133
-2.76392
-0.693139
-1.02313
-1.77687
-0.173261
-0.890273
0.348181
-0.564744
0.748598
-0.453482
0.787429
-0.0824466
-0.346287
1.08548
-2.26362
1.86159
-3.35196
1.05215
-4.96042
1.58419
-5.21882
0.245851
-3.49961
-1.73634
-2.63779
-0.872337
-2.51111
-0.139686
-2.47042
-0.0686503
-2.49841
40.9834
-81.9286
80.7784
-82.3077
122.062
-86.777
164.477
-85.075
208.558
-86.8039
253.88
-91.0589
296.396
-86.1622
338.438
-84.3395
382.478
-86.1035
428.668
-89.7312
476.667
-95.3446
522.443
-93.0406
565.035
-86.249
608.447
-84.7317
654.938
-89.5005
703.141
-94.9773
750.137
-95.3931
796.932
-97.3935
844.13
-97.1439
892.719
-96.2126
944.346
-100.906
997.197
-104.166
1048.33
-103.452
1097.71
-103.249
1146.78
-100.893
1196.36
-98.4017
1246.53
-99.8206
1297.49
-99.7772
1349.39
-100.148
1401.73
-105.147
1453.4
-105.113
1503.53
-96.8976
1552.48
-95.4111
1598.78
-96.7075
1643.57
-92.8207
1691.05
-92.2018
1742.59
-96.7252
1793.44
-96.4563
1839.89
-92.8388
1882.88
-90.4272
1926.84
-89.7414
1974.46
-93.1688
2021.54
-98.1704
2064.13
-94.2658
2107.96
-87.4622
2157.97
-91.9534
2207.38
-100.427
2250.23
-95.7396
2288.92
-74.8883
2326.97
-56.923
2362.77
-59.7576
2392.48
-76.0276
2417.61
-75.8378
2448.93
-56.5669
2492.33
-48.7953
2536.05
-66.6672
2564.68
-88.8944
2578.8
-73.7749
2601.49
-36.6649
2649.64
-37.5423
2703.02
-74.7549
2726.45
-84.5008
2719.65
-40.6064
2725.77
-10.4419
2773.31
-45.5646
2830.86
-89.6958
2853.06
-83.1025
2843.87
-44.1682
2840.58
-0.0666256
2859.19
36.7875
2881.31
27.8689
2882.51
-25.0033
2874.02
-60.6019
2895.72
-58.8877
2953.28
-55.2337
3005.74
-71.2367
3022.73
-81.6323
3006.27
-24.2843
2976.51
74.614
2965.42
77.0502
2992.66
-52.8451
3038.07
-143.717
3070.57
-74.8345
3091.89
25.051
3102.44
22.5232
3079.77
-8.26047
3041.81
1.10582
3046.15
-4.17303
3101.37
-45.6177
3146.23
-54.2665
3135.73
-4.85121
3101.42
36.3087
3086.01
32.2105
3080.57
24.4472
3057.32
41.7327
3010.32
76.7226
2949.83
110.557
2884.89
126.346
2820.05
124.297
2757.39
117.1
2694.74
117.517
2629.07
122.874
2559.94
127.065
2487.94
130.233
2408.84
143.563
2318.63
168.769
2216.37
196.208
2102.48
225.147
1980.56
245.559
1855.62
254.51
1732.42
252.942
1616.77
237.532
1511.34
216.164
1416.73
193.628
1332.07
172.394
1256.45
153.709
1188.55
137.473
1126.04
125.771
1068.24
117.985
1015.44
107.567
966.599
96.7307
921.911
90.8896
880.541
85.1388
841.915
77.3828
806.862
70.4984
774.434
64.7796
743.84
60.7035
714.753
57.591
687.901
54.0872
662.17
52.0401
637.425
48.2573
614.286
44.8881
592.83
43.2789
572.87
42.5792
553.582
39.8859
533.929
37.8499
515.228
36.8361
497.189
37.3059
478.794
38.0082
461.259
35.511
444.756
33.8271
428.957
32.2156
413.602
31.0419
398.85
30.1075
384.867
28.3309
371.867
25.8582
358.598
25.2368
346.778
23.1818
336.766
20.7567
327.225
19.9159
317.752
18.833
308.999
16.8013
301.248
15.0186
292.326
15.9805
283.33
15.8674
274.98
16.3197
267.783
16.3137
260.794
16.0115
254.035
14.2009
246.89
14.1229
239.55
14.136
233.223
11.5832
227.521
10.2816
222.58
9.72452
215.95
11.7839
209.658
11.3154
203.699
12.4918
196.254
15.4727
188.835
16.2259
182.036
15.096
176.717
10.5739
171.856
8.97217
167.343
8.98614
161.865
10.7099
155.829
11.9745
151.443
9.26023
148.768
6.46596
146.76
5.42289
142.47
7.5786
136.723
8.42967
133.357
5.33556
131.926
3.88424
130.378
3.60949
126.496
6.39073
121.999
8.15419
117.842
7.27589
113.615
6.8672
110.948
5.31136
109.078
5.12686
107.577
5.46885
105.859
6.02176
102.09
8.07005
98.1256
7.5594
94.639
6.06547
90.3429
6.72405
87.6781
4.37819
86.1749
2.04385
83.5643
3.15148
81.9703
2.79957
81.6306
2.81169
80.0763
4.96179
77.6526
5.13705
76.2592
2.68719
74.0126
3.4125
70.6732
4.16051
68.0886
4.83686
66.6327
5.28605
64.9603
5.5878
62.1423
5.28869
59.2828
3.80523
57.5551
2.61531
56.9046
1.06743
57.343
-0.737165
58.373
-0.913556
58.5083
1.2028
59.3238
-0.306678
58.9333
1.0384
55.3011
5.049
50.7095
7.21965
46.6734
8.47556
44.4538
4.96434
43.8553
1.28436
43.5077
-0.0042524
43.3125
-0.458855
41.8668
1.09739
40.9244
0.202305
43.5223
-3.83325
46.6939
-4.036
47.1013
-0.162759
44.5984
4.13197
41.9029
4.38217
41.0129
0.369528
39.8585
1.06716
39.0994
3.15974
39.0566
3.07499
36.8716
4.78037
33.8911
5.30303
32.7555
1.81601
32.091
-0.0453917
30.186
1.80545
29.9229
-0.560516
31.3022
-2.22758
30.2886
1.63485
27.5738
3.81316
25.1905
3.66333
25.753
0.558813
29.3508
-3.31569
30.3572
-0.338653
28.2141
2.88505
25.5872
3.34682
24.6348
2.72736
25.6521
0.732333
25.2511
1.88868
22.78
3.47183
22.0864
-0.311064
22.8475
-1.06324
22.5946
1.97903
22.7392
0.657481
21.6844
2.21911
19.1425
3.91265
19.0365
-0.358106
19.978
-0.191017
18.9304
3.05184
15.992
4.61918
13.7745
4.10871
12.992
2.59007
10.9857
3.62489
9.94085
1.0063
11.9553
-3.81625
14.2695
-3.44888
14.3387
-0.384145
12.8757
0.694803
12.5898
0.305612
13.3036
0.211759
12.3354
2.05905
12.1423
0.678229
12.6949
-0.745736
11.5602
0.811114
10.5463
0.614208
12.006
-2.05646
14.0536
-2.33672
13.1463
2.02336
10.6265
5.26473
9.08345
4.72028
7.91729
2.52389
6.21715
1.43609
5.88137
-0.994744
8.3239
-3.75944
11.6079
-4.19999
11.5251
0.367683
10.8182
1.65035
11.8023
-0.837891
11.1073
0.524487
9.03334
2.29606
8.81903
0.795188
8.31547
1.71333
6.16323
3.82722
4.77659
2.73317
3.19709
2.50803
1.85997
1.61096
1.79289
0.560153
1.36883
1.1353
1.53115
-0.573602
3.28468
-3.17344
6.15226
-5.98617
8.77789
-6.64015
9.34969
-1.76841
9.27646
0.554143
7.80026
2.76179
5.57768
4.07854
3.85739
2.99633
3.71559
-0.608079
2.38889
1.5254
1.61282
1.8138
2.95836
-1.27648
2.72989
0.191916
0.8389
2.64721
0.29915
1.45594
2.96477
-3.11329
4.4208
-0.41539
3.37377
2.69902
1.00205
3.58027
-1.28965
3.16205
-0.144631
-1.68205
1.51578
-3.23837
1.0346
-0.727213
0.882633
-1.44991
1.87036
-3.58724
4.47615
-6.27539
9.39662
-9.84892
14.265
-8.19106
15.6697
-1.40126
14.1504
2.46238
11.1917
4.63084
8.49824
5.1906
5.86921
4.7706
4.5562
3.46057
5.13397
0.892835
4.37312
1.99362
4.66347
0.261719
5.18517
-0.656095
3.74878
1.0871
2.69303
0.555452
2.93245
-0.700099
5.64934
-3.77123
9.28924
-4.43941
9.45284
0.224061
7.3082
2.62533
6.78868
-0.0769665
7.21234
-1.64626
6.82871
-0.212354
6.81801
0.369661
6.54652
1.49106
4.99519
2.52998
4.41614
0.458072
3.06131
1.34641
1.698
0.756545
3.26368
-3.03173
5.56426
-2.85126
7.33213
-1.84309
8.20446
-0.649105
7.43133
1.64416
6.74102
1.4428
6.43062
0.7276
5.84274
0.510411
5.82224
0.483884
5.63588
0.986294
4.31114
2.06721
2.25164
2.57078
0.74627
1.64382
0.44698
0.524681
3.09843
-3.5819
5.60831
-3.29109
5.75086
-0.43089
5.76402
-0.825698
6.09947
-1.00509
6.1849
-0.766615
5.67588
-0.117786
6.47497
-2.34645
6.29387
0.398917
5.30089
3.34797
5.78486
0.755878
6.18517
0.334909
5.4349
1.55581
3.27979
2.22676
0.952543
2.23501
0.909615
-0.255372
1.46883
-0.0182499
1.12921
0.820463
0.895137
-0.789512
0.691878
-0.444726
2.63244
-2.52552
3.63287
-0.608041
1.99084
3.12053
1.00254
2.14872
-0.886861
3.45202
-3.03357
3.6477
-3.26543
1.20303
-1.8806
-1.37007
-1.19007
-1.31981
-2.07036
0.420795
-2.44149
-0.209302
-0.884265
-3.53269
1.09233
-5.26376
0.708209
-1.25515
-1.36554
3.02222
-1.88728
1.21511
-0.776559
-1.80878
2.06353
-4.99253
6.64974
-7.78677
9.04474
-3.78123
8.70613
0.462265
6.47344
3.06168
3.52981
4.35909
1.73722
4.09854
1.81966
1.51617
2.85873
-1.74308
2.99488
-1.42905
3.45967
-1.61713
3.92283
-0.395694
4.16106
0.507969
3.36736
1.16919
2.57249
0.867967
1.69857
1.68843
-0.856011
4.54017
-3.25974
4.81282
-4.70108
4.4068
-4.341
2.14694
-4.25968
1.31919
-5.18195
1.79526
-5.35327
0.91067
-5.67803
0.596228
-6.05588
-0.363088
-7.64807
1.70361
-7.91589
-0.226988
-6.12877
-4.33704
-5.59179
-2.25657
-2.77167
-5.0585
0.45359
-5.5451
1.72468
-3.10831
1.714
-0.944207
1.28291
-0.732361
1.51957
-2.27527
2.14859
-2.05927
3.97197
-3.67931
5.59337
-3.78532
6.09461
-2.27657
7.1434
-2.19954
7.98261
-0.74427
7.46193
0.810448
6.59998
0.39844
5.42055
0.881865
5.12085
0.220229
5.37586
0.886527
5.43866
1.62749
4.71197
2.25505
4.23424
2.52036
3.076
3.79052
0.658465
3.83897
0.168771
-0.173036
-0.0932565
0.053739
-1.98257
2.96534
-1.80401
0.88442
-0.751717
-0.804325
-1.78565
1.64541
-1.8116
0.0756996
-1.23381
-1.86819
-1.17815
-1.60048
-0.0576876
-3.05641
1.2816
-3.80752
3.20015
-3.76948
3.79116
-0.54885
2.34937
2.41026
1.86987
2.09029
1.00259
3.0093
-1.79517
5.19111
-4.39317
4.35099
-7.3803
4.18864
-8.41494
1.13001
-5.99659
-4.57027
-4.54842
-2.44376
-0.578739
-5.71681
5.48738
-9.50338
6.91927
-2.63301
5.50517
1.0017
2.89359
3.15885
0.253061
4.16432
-1.6093
2.67406
-3.45251
2.38528
-5.31133
3.46624
-4.62025
-1.07651
-0.869526
-6.65272
1.1069
-2.30253
0.302191
2.77766
-1.1584
3.26006
-2.08307
1.81886
-1.67632
-1.11872
-1.46995
-2.00807
-2.75631
0.366482
-2.97972
-0.362522
-2.06997
-1.36162
0.336247
-2.57824
2.41011
-1.04243
2.04473
2.19301
0.721402
2.31133
-1.92794
4.2109
-2.10706
0.427338
-0.628873
-3.12798
-1.67769
0.182062
-3.46849
1.60881
-4.0791
0.508132
-6.62487
41.6975
-123.067
82.3914
-122.45
122.816
-126.641
164.371
-126.074
206.307
-128.185
248.832
-133.031
290.194
-126.969
332.165
-125.766
377.11
-130.509
422.995
-135.079
467.957
-139.776
509.759
-134.305
550.842
-126.791
596.858
-130.218
647.54
-139.661
696.964
-143.878
742.287
-140.177
787.191
-141.757
832.243
-141.645
878.149
-141.564
926.537
-148.737
975.48
-152.537
1022.62
-150.009
1069
-149.028
1116.67
-147.957
1165.47
-146.59
1214.79
-148.531
1265.39
-149.773
1315.58
-149.736
1363.36
-152.342
1411.59
-152.747
1462.37
-147.071
1512.76
-145.225
1560.35
-143.725
1608.78
-140.673
1660.41
-143.265
1713.41
-149.168
1762.59
-145.086
1805.96
-135.64
1847.01
-130.915
1891.4
-133.573
1937.84
-139.061
1979.37
-139.157
2018.32
-132.637
2063.72
-132.278
2113.53
-141.195
2158.37
-144.703
2199.13
-135.86
2240.04
-115.111
2277.41
-93.6595
2306.19
-88.0209
2329.95
-99.2769
2362.06
-107.285
2409.77
-103.573
2459.63
-98.1112
2491.54
-98.1529
2503.73
-100.604
2520.72
-89.9679
2564.8
-79.8889
2620.24
-92.4814
2649.89
-104.088
2646.28
-80.187
2646.37
-39.5113
2682
-45.2079
2731.13
-94.132
2748.49
-106.495
2729.8
-63.7968
2713.36
-27.1958
2734.93
-21.1618
2793.06
-20.7747
2841.62
-20.0932
2839.07
-22.0692
2815.08
-36.2291
2829.61
-72.8936
2885.38
-110.26
2937.43
-123.397
2947.81
-91.4706
2913.36
10.8272
2879.04
109.623
2890.43
65.6545
2933.11
-95.5168
2967.77
-177.335
2992.33
-98.2452
3010.92
7.01421
2998.62
34.5539
2963.01
27.1065
2958.94
5.1775
3004.16
-49.3653
3054.15
-94.9101
3070.66
-70.6323
3062.01
3.86992
3050.62
46.8666
3033.68
48.3911
3000.53
56.7122
2956.97
84.1281
2913.19
119.454
2867.37
154.71
2813.42
178.567
2751.35
184.736
2684.03
181.866
2613.84
185.11
2542.4
191.742
2469.84
195.285
2393.38
202.402
2308.08
224.865
2212.61
259.399
2107.63
296.66
1995.85
332.833
1880.94
356.878
1766.65
365.249
1657.52
359.397
1555.71
337.023
1462.28
307.641
1377.29
277.118
1299.92
248.685
1229.98
222.904
1165.85
201.046
1105.93
185.329
1051.62
172.076
1001.19
157.826
952.68
145.262
909.875
133.69
870.614
124.436
832.615
115.433
798.387
104.806
766.181
97.0652
735.112
91.64
705.872
86.7899
679.552
80.3899
654.245
77.3046
629.022
73.5342
605.728
68.2258
584.829
64.166
566.066
61.3066
547.386
58.5442
527.385
57.8882
508.743
55.5237
491.601
54.4656
474.277
55.3257
457.35
52.4538
441.339
49.8318
426.255
47.2978
411.605
45.6578
397.613
44.1089
384.005
41.8974
370.693
39.1186
356.626
39.2329
344.366
35.3612
334.96
30.0766
326.197
28.6147
316.556
28.4162
307.411
25.9114
299.412
22.9316
289.879
25.4207
280.69
25.135
272.074
24.918
264.777
23.5773
258.712
22.0498
252.371
20.4051
244.722
21.7379
236.722
22.0888
230.163
18.0628
224.189
16.2513
218.568
15.2724
211.436
18.8718
205.047
17.5708
199.725
17.6947
193.376
21.7911
186.781
22.7169
180.651
21.1087
175.8
15.2819
170.729
13.9524
166.311
13.331
160.767
16.1535
154.471
18.0834
151.185
12.3513
149.476
8.09847
147.47
7.32345
143.462
11.5263
137.702
14.0625
133.423
9.42923
130.675
6.63538
128.01
6.19415
124.012
10.2383
119.823
12.0465
115.362
11.6839
110.325
11.8338
107.802
7.79469
106.833
5.96763
106.572
5.69468
106.036
6.54979
102.673
11.3855
98.9299
11.2911
95.4626
9.49546
90.5832
11.5357
87.2113
7.69362
85.3189
3.98495
82.8151
5.58036
81.3554
4.26601
81.2012
2.89206
79.7788
6.45854
76.8447
8.13938
75.9988
3.66587
74.1337
5.23251
70.3192
7.93232
67.5047
7.6111
66.2554
6.55111
65.3262
6.5775
62.9144
7.73384
60.3591
6.50208
59.4527
3.57682
58.7946
1.73279
58.6079
-0.55527
58.5728
-0.967631
57.2269
2.48248
58.118
-1.26871
59.06
-0.00236255
56.3953
7.7104
51.8491
11.6152
47.5456
12.6182
44.701
7.74491
43.2859
2.54911
43.1402
0.0648084
42.6439
0.0149796
40.612
3.05841
39.5457
1.31493
41.9296
-6.21909
45.3095
-7.4562
46.1998
-1.12955
44.2325
6.03683
40.7683
7.78493
39.8905
1.30627
39.7105
1.21489
39.1126
3.69129
39.4377
2.63469
37.3441
6.91643
33.9993
8.63878
33.0651
2.73005
32.1395
0.835686
29.322
4.60206
28.5029
0.240917
29.4189
-3.2024
28.2555
2.7953
25.3226
6.79604
22.8485
6.1899
23.7387
-0.344164
27.3778
-7.01866
28.8387
-1.82356
27.3558
4.43588
24.7914
5.95107
24.4977
3.02189
26.3035
-1.14374
25.782
2.30415
23.5055
5.7215
23.1627
0.0884036
22.9269
-0.779281
21.5082
3.46273
21.6581
0.487883
20.4286
3.47772
17.8752
6.51208
18.4631
-0.815262
19.9265
-1.49903
19.2433
3.86315
16.8875
7.06618
15.4107
5.74501
14.3663
3.71089
11.8893
6.12092
11.1966
1.69812
13.2077
-5.83432
13.9598
-4.24232
12.357
1.20239
10.8873
2.13108
11.1814
0.00211815
12.404
-1.02026
12.1563
2.31102
12.0798
0.754709
12.689
-1.25553
11.6353
1.92782
10.4564
1.82566
11.0789
-2.6677
12.5968
-3.8065
11.949
2.57683
9.96938
7.18671
8.69762
5.91886
7.5857
3.65985
6.30556
2.61291
7.17076
-1.96119
9.7511
-6.41386
11.8454
-6.39481
11.7358
0.445415
11.4574
1.78908
12.7413
-2.22938
12.0451
1.15874
9.99422
4.30837
10.3864
0.304219
9.76845
2.23661
7.48339
6.09799
6.73681
3.61284
5.44049
3.83261
4.6647
2.36655
4.7983
0.461794
3.49851
2.39299
3.89137
-1.05134
5.29223
-4.52906
6.76919
-7.53555
9.41005
-9.35597
9.76095
-2.13472
9.34989
0.95404
8.10637
3.99361
5.27211
6.98894
3.16985
5.12739
3.21479
-0.607705
1.67837
3.21691
0.223557
3.25742
1.60324
-2.63317
2.02257
-0.317552
0.312674
4.37262
-0.239156
1.97188
2.45426
-5.82265
3.81926
-1.94772
3.54495
3.00316
2.11106
5.01307
0.417142
4.89128
1.45963
-2.71785
2.73242
-4.55968
2.21414
-0.177083
2.01021
-1.25339
2.9935
-4.59279
4.48261
-7.79995
7.15344
-12.4789
10.9263
-11.8837
11.7421
-2.20352
10.0788
4.12927
7.71298
7.08154
5.46043
7.49926
3.46311
6.81207
2.68341
4.28337
4.10231
-0.490416
4.3507
1.65361
5.4004
-0.889346
6.68048
-2.05014
5.50104
2.20917
4.25598
1.75353
4.77942
-1.12322
6.94966
-5.77632
9.39369
-6.81785
9.42678
0.151445
7.15238
4.9169
6.10086
0.996418
6.74955
-2.28766
6.69686
-0.157237
6.53267
0.585082
5.68737
2.31568
3.86492
4.38312
2.93712
1.37974
0.896528
3.49472
-0.397623
2.12012
1.53913
-5.07212
3.53525
-4.95822
4.74603
-3.29557
5.72163
-1.74186
5.71372
1.56813
5.58521
1.58722
5.41571
0.818713
5.47042
0.431064
5.48693
0.435774
4.91327
1.52844
3.78606
3.12187
2.37257
3.85313
1.33147
2.57749
1.15244
0.518315
3.56578
-6.10808
6.23409
-5.99576
6.91472
-1.19166
7.04954
-1.05554
7.25297
-1.37204
6.87274
-0.502031
6.57919
0.203234
8.22771
-4.01802
8.29079
0.347654
6.837
4.78727
6.46346
1.00307
7.04384
-0.298313
7.02243
1.64936
3.96057
5.24314
0.709294
5.29778
1.07712
-0.688294
1.63528
-0.602948
0.617952
1.78015
0.640729
-0.840125
1.17164
-1.02178
2.44539
-3.83685
2.39576
-0.649831
1.08019
4.36962
1.21321
1.89487
0.130564
4.48649
-1.84647
5.55577
-1.71331
1.03201
0.469192
-3.5646
2.09271
-2.96883
1.14585
1.29406
-0.358878
1.10979
-0.00405197
-4.02691
1.89235
-7.20541
1.81311
-1.17588
-1.13207
5.93217
-2.15415
2.21197
-1.87597
-2.07081
-0.616387
-6.2743
3.81134
-12.1811
6.63975
-6.51944
6.53769
0.643326
4.46695
5.11504
1.73125
7.12337
0.494824
5.34588
0.427149
1.58625
1.14294
-2.49812
1.82179
-2.10032
2.8829
-2.73755
3.54707
-1.09262
2.85732
1.1761
1.7042
2.41251
1.82717
0.733769
1.63174
1.82736
-0.381431
6.47987
-2.37007
6.6803
-3.44945
5.42403
-2.47698
1.16237
-1.65029
0.471343
-1.61238
1.73098
-2.05575
1.29778
-3.00037
1.52792
-3.0082
-0.342162
-4.9881
3.66578
-6.39099
1.10865
-4.74731
-6.01
-4.70466
-2.42122
-2.91154
-7.06107
0.280016
-8.83732
1.17946
-4.09383
0.678683
-0.517914
0.211657
-0.383941
0.30212
-2.37203
0.415729
-2.25556
1.64622
-5.02594
3.05432
-5.23795
3.57992
-2.84577
4.45803
-3.10333
5.04261
-1.47079
4.8258
1.03283
4.48789
0.665184
3.97731
1.29758
4.40475
-0.317224
4.8974
0.311782
4.92471
1.47117
4.65756
2.4743
4.61581
2.52398
3.19344
5.10748
0.723382
6.25369
1.41997
-0.821525
1.5741
-0.120472
-0.999219
5.49092
-1.1002
1.11118
0.214668
-2.18201
-0.258849
2.01592
-0.395969
0.233425
-0.313539
-2.0359
-0.289276
-1.71862
1.22119
-4.53919
3.23788
-5.8453
4.67586
-5.09075
4.35179
-0.156216
3.08053
3.66811
2.37215
2.80938
1.72814
3.64791
-0.439481
7.32471
-2.73082
6.7038
-5.90092
7.43433
-6.66889
1.92083
-3.22455
-7.74235
-2.62111
-2.93807
-0.0223468
-8.20291
5.93061
-15.4152
6.97466
-3.73674
4.99956
2.86112
2.6906
5.31231
0.621835
6.19366
-1.17052
4.52028
-3.7388
4.97422
-6.12173
5.75496
-5.39777
-1.90712
-2.01444
-10.0432
-0.575308
-3.76681
-1.76802
3.95383
-3.69871
5.23442
-4.47072
2.75052
-3.0719
-2.41896
-1.71027
-3.32174
-2.92244
1.58209
-3.41069
0.0785426
-2.35806
-2.47789
-0.322822
-4.58223
1.93809
-3.49841
2.50112
1.33071
1.75051
2.97685
-0.435586
6.36781
-0.0299613
0.046852
2.17337
-5.38375
1.38783
0.966076
-1.84352
4.84995
-4.12868
2.76612
-10.7852
41.4049
-163.911
82.7919
-163.274
123.496
-166.785
164.024
-166.041
203.161
-166.76
242.793
-172.104
283.798
-167.414
325.66
-167.067
368.28
-172.569
410.36
-176.599
451.611
-180.463
492.525
-174.65
535.765
-169.461
582.165
-176.049
629.816
-186.737
675.723
-189.198
719.389
-183.247
765.207
-186.967
812.627
-188.446
859.466
-187.775
904.674
-193.306
948.682
-195.891
994.901
-195.562
1045.37
-198.823
1096.66
-198.562
1145.41
-194.648
1191.94
-194.373
1237.89
-195.039
1284.38
-195.548
1331.38
-198.675
1380.28
-200.964
1431.55
-197.675
1482.4
-195.4
1529.24
-189.9
1575.6
-186.378
1625.68
-192.699
1676.47
-199.307
1723.25
-191.199
1768.29
-180.004
1815.2
-177.162
1863.72
-181.439
1909.85
-184.534
1950
-178.643
1986.99
-168.951
2026.64
-171.261
2069.6
-183.473
2112.43
-186.801
2153.21
-175.881
2191.79
-152.905
2230.36
-131.474
2269.07
-126.035
2304.91
-134.455
2340.12
-141.838
2377.86
-140.632
2413.4
-132.945
2440.22
-124.259
2462.06
-121.711
2493.82
-121.065
2536.3
-121.71
2564.81
-120.277
2565.59
-104.123
2565.52
-79.2664
2599.05
-72.3821
2651.25
-96.7234
2673.83
-116.036
2660
-91.9004
2651.01
-54.0081
2670.61
-46.009
2707.94
-57.6687
2747.02
-59.1735
2769.79
-42.2733
2766.45
-18.2784
2761.53
-30.7307
2783.83
-94.8435
2822.01
-147.922
2838.29
-139.525
2817.99
-70.3087
2797.03
32.6329
2824.36
82.8034
2882.98
6.98276
2902.33
-114.747
2862.99
-138.269
2829.19
-63.2364
2846.89
-10.1766
2886.25
-5.31366
2914.09
-1.08681
2936.27
-17.1495
2953.48
-66.8643
2953.88
-94.4073
2943.57
-59.823
2938.73
8.87134
2928.51
56.2179
2896.77
79.2788
2860.61
92.1013
2838.12
105.361
2818.73
138.011
2783.29
188.796
2727.94
231.472
2661.46
249.564
2591.33
250.34
2520.13
252.317
2448.12
260.346
2373.53
267.745
2290.2
280.801
2198.39
311.513
2100.7
353.007
1996.07
396.173
1888.45
435.351
1782.04
459.93
1679.45
464.883
1583.14
452.846
1493.35
424.653
1410.44
388.862
1334.08
352.096
1263.52
318.23
1198.97
286.737
1138.95
260.613
1082.47
241.586
1031.39
222.975
983.248
205.934
936.646
191.748
895.658
174.625
857.97
162.174
821.299
152.208
787.601
138.51
755.498
129.196
724.849
122.337
696.077
115.378
669.975
106.38
644.665
102.618
619.757
98.3038
597.691
90.3257
577.433
84.4891
558.262
80.5829
539.491
77.379
520.363
76.964
502.483
73.3432
485.663
71.3211
469.062
72.0278
452.801
68.8246
437.186
65.4604
422.493
61.9953
408.386
59.6995
394.494
57.8319
381.071
55.2164
368.302
51.8103
354.633
52.8255
342.173
47.762
332.891
39.3411
323.989
37.4467
313.753
38.5544
304.659
34.9216
296.837
30.6371
288.011
34.2388
279.384
33.7138
270.57
33.787
262.347
31.909
255.865
28.6535
249.755
26.6145
241.837
29.6047
233.396
30.556
226.997
24.4464
220.402
22.7309
213.23
22.4659
205.978
26.0392
200.761
22.788
196.643
21.9189
190.968
27.2939
185.176
28.3866
179.81
26.4141
175.117
19.8678
170.104
18.8795
165.315
17.9638
159.821
21.527
154.483
23.3042
151.814
14.8194
149.63
10.112
146.688
10.1713
143.206
15.0114
138.954
18.5004
134.264
14.3661
129.051
11.5686
124.395
10.6883
120.591
13.9669
117.805
14.8622
113.85
15.5133
108.779
16.8466
105.73
10.7617
104.863
6.91352
105.276
5.29114
104.856
7.02801
102.249
14.063
99.2525
14.3272
95.4524
13.2348
90.7254
16.1853
87.0215
11.353
84.3091
6.53361
82.0761
7.59159
81.1854
5.0882
80.8576
3.30229
79.1989
7.97174
76.5844
10.6821
75.1629
5.34257
72.909
7.6018
69.9515
10.8595
67.5083
9.9856
65.9569
8.03087
65.2036
7.2247
63.7477
9.19853
62.5702
7.77878
62.0305
4.08536
60.2315
3.41546
59.0907
0.482551
59.1365
-0.993761
57.1571
4.47297
55.8057
0.0131525
56.3179
-0.559179
55.7082
8.06804
52.88
14.2186
48.7504
16.8152
45.7064
10.8499
44.1185
4.40771
42.5952