/*--------------------------------*- C++ -*----------------------------------*\
| =========                 |                                                 |
| \\      /  F ield         | OpenFOAM: The Open Source CFD Toolbox           |
|  \\    /   O peration     | Version:  v2012                                 |
|   \\  /    A nd           | Website:  www.openfoam.com                      |
|    \\/     M anipulation  |                                                 |
\*---------------------------------------------------------------------------*/
FoamFile
{
    version     2.0;
    format      ascii;
    class       volScalarField;
    location    "350";
    object      T;
}
// * * * * * * * * * * * * * * * * * * * * * * * * * * * * * * * * * * * * * //

dimensions      [0 0 0 1 0 0 0];


internalField   nonuniform List<scalar> 
65536
(
291.491
291.494
291.491
291.491
291.489
291.485
291.486
291.483
291.48
291.477
291.473
291.471
291.471
291.469
291.467
291.465
291.464
291.463
291.462
291.461
291.459
291.458
291.456
291.453
291.45
291.446
291.442
291.438
291.433
291.428
291.422
291.416
291.409
291.402
291.394
291.387
291.378
291.369
291.361
291.351
291.342
291.332
291.321
291.309
291.297
291.283
291.268
291.252
291.236
291.22
291.202
291.185
291.17
291.156
291.14
291.122
291.106
291.093
291.09
291.078
291.058
291.045
291.048
291.085
291.115
291.131
291.144
291.147
291.16
291.169
291.158
291.166
291.132
291.079
291.028
290.989
291.042
291.091
291.102
291.061
290.93
290.877
290.923
290.996
290.976
290.842
290.769
290.738
290.734
290.829
290.972
290.985
290.992
291.044
291.137
291.268
291.44
291.649
291.892
292.171
292.494
292.869
293.297
293.777
294.307
294.874
295.459
296.037
296.592
297.107
297.572
297.98
298.325
298.604
298.818
298.969
299.072
299.139
299.182
299.207
299.218
299.225
299.225
299.226
299.227
299.229
299.234
299.237
299.239
299.242
299.243
299.243
299.244
299.244
299.243
299.241
299.239
299.233
299.225
299.217
299.21
299.208
299.207
299.208
299.212
299.217
299.22
299.222
299.221
299.22
299.22
299.221
299.225
299.227
299.232
299.237
299.241
299.246
299.25
299.252
299.254
299.254
299.254
299.253
299.252
299.252
299.251
299.253
299.254
299.256
299.256
299.255
299.252
299.248
299.241
299.238
299.232
299.229
299.226
299.225
299.225
299.225
299.23
299.235
299.239
299.242
299.244
299.245
299.246
299.245
299.246
299.247
299.248
299.252
299.252
299.253
299.255
299.256
299.257
299.256
299.253
299.25
299.248
299.246
299.245
299.244
299.241
299.238
299.235
299.233
299.23
299.228
299.23
299.229
299.23
299.231
299.229
299.229
299.229
299.226
299.225
299.226
299.228
299.227
299.229
299.232
299.233
299.236
299.238
299.24
299.241
299.243
299.242
299.243
299.242
299.241
299.239
299.238
299.236
299.234
299.232
299.231
299.231
299.231
299.232
299.233
299.234
299.233
299.235
299.236
299.24
299.246
299.251
299.255
299.257
299.258
299.259
299.258
299.254
299.25
299.245
299.238
299.232
299.228
299.222
299.22
299.22
299.22
299.221
299.224
299.227
299.232
299.236
299.239
299.242
299.245
299.249
299.251
299.254
299.258
299.261
299.263
299.264
299.264
299.262
299.261
299.257
299.251
299.244
299.238
299.232
299.223
299.217
299.211
299.211
299.207
299.206
299.206
299.205
299.204
299.203
299.202
299.202
299.2
299.2
299.201
299.201
299.202
299.205
299.206
299.209
299.213
299.216
299.222
299.228
299.233
299.236
299.238
299.238
299.237
299.235
299.232
299.228
299.226
299.224
299.221
299.219
299.216
299.212
299.209
299.208
299.208
299.209
299.211
299.212
299.216
299.22
299.226
299.233
299.239
299.246
299.251
299.256
299.261
299.266
299.27
299.273
299.273
299.272
299.27
299.266
299.266
299.266
299.271
299.277
299.282
299.287
299.293
299.296
299.299
299.3
299.298
299.297
299.296
299.294
299.292
299.289
299.286
299.283
299.277
299.27
299.264
299.259
299.257
299.258
299.259
299.261
299.265
299.27
299.274
299.28
299.285
299.289
299.291
299.292
299.293
299.292
299.292
299.292
299.292
299.291
299.289
299.288
299.285
299.279
299.275
299.27
299.266
299.26
299.255
299.253
299.253
299.253
299.255
299.257
299.255
299.252
299.246
299.242
299.239
299.232
299.231
299.231
299.232
299.237
299.238
299.243
299.247
299.252
299.258
299.261
299.262
299.262
299.26
299.259
299.256
299.254
299.25
299.244
299.238
299.234
299.231
299.231
299.232
299.235
299.24
299.247
299.252
299.255
299.258
299.257
299.255
299.251
299.246
299.243
299.238
299.237
299.234
299.234
299.234
299.234
299.234
299.234
299.233
299.237
299.24
299.246
299.253
299.258
299.261
299.263
299.262
299.259
299.257
299.255
299.251
299.248
299.244
299.239
299.235
299.231
299.23
299.232
299.232
299.234
299.233
299.232
299.228
299.225
299.222
299.221
299.221
299.222
299.225
299.227
299.226
299.225
299.224
299.222
299.22
299.219
299.217
299.214
299.213
299.213
299.215
299.218
299.224
299.23
299.232
299.234
299.233
299.23
299.228
299.223
299.218
299.213
299.208
299.204
299.202
299.201
299.202
291.303
291.298
291.306
291.304
291.307
291.313
291.308
291.31
291.313
291.316
291.322
291.321
291.317
291.318
291.323
291.328
291.329
291.331
291.332
291.332
291.334
291.336
291.334
291.333
291.33
291.326
291.323
291.319
291.315
291.313
291.308
291.299
291.292
291.287
291.278
291.269
291.263
291.256
291.248
291.239
291.229
291.22
291.212
291.201
291.186
291.17
291.159
291.143
291.118
291.093
291.08
291.074
291.056
291.025
291.003
291
291.002
290.986
290.936
290.91
290.922
290.92
290.895
290.839
290.806
290.798
290.783
290.762
290.722
290.69
290.675
290.673
290.646
290.612
290.557
290.584
290.562
290.564
290.555
290.543
290.56
290.542
290.467
290.487
290.491
290.509
290.499
290.497
290.491
290.496
290.527
290.645
290.744
290.831
290.938
291.076
291.252
291.47
291.725
292.013
292.333
292.703
293.136
293.62
294.16
294.751
295.358
295.956
296.515
297.033
297.489
297.884
298.214
298.479
298.681
298.83
298.931
298.999
299.042
299.066
299.078
299.072
299.078
299.072
299.072
299.083
299.089
299.097
299.099
299.101
299.102
299.102
299.099
299.099
299.101
299.105
299.098
299.089
299.08
299.067
299.059
299.052
299.056
299.065
299.072
299.073
299.08
299.078
299.08
299.081
299.079
299.079
299.073
299.086
299.091
299.093
299.101
299.104
299.108
299.113
299.114
299.117
299.114
299.111
299.106
299.107
299.109
299.105
299.112
299.116
299.117
299.117
299.112
299.105
299.101
299.086
299.088
299.086
299.083
299.081
299.081
299.087
299.089
299.09
299.098
299.101
299.107
299.104
299.1
299.102
299.098
299.102
299.103
299.099
299.108
299.114
299.114
299.121
299.119
299.116
299.112
299.109
299.101
299.103
299.103
299.1
299.102
299.098
299.092
299.083
299.083
299.086
299.078
299.087
299.088
299.089
299.093
299.087
299.076
299.081
299.082
299.079
299.073
299.085
299.086
299.083
299.094
299.1
299.102
299.099
299.098
299.092
299.098
299.097
299.102
299.102
299.097
299.093
299.093
299.096
299.092
299.089
299.082
299.085
299.089
299.091
299.088
299.089
299.084
299.093
299.102
299.103
299.108
299.114
299.117
299.121
299.12
299.114
299.117
299.11
299.105
299.1
299.09
299.075
299.082
299.083
299.078
299.079
299.075
299.072
299.082
299.085
299.095
299.099
299.102
299.105
299.107
299.114
299.121
299.12
299.12
299.123
299.124
299.122
299.124
299.115
299.112
299.106
299.105
299.097
299.083
299.074
299.064
299.065
299.056
299.063
299.061
299.057
299.061
299.059
299.059
299.061
299.057
299.057
299.055
299.05
299.059
299.063
299.063
299.064
299.065
299.065
299.076
299.083
299.088
299.093
299.097
299.099
299.098
299.098
299.093
299.089
299.087
299.079
299.082
299.085
299.082
299.08
299.077
299.071
299.063
299.068
299.071
299.071
299.073
299.07
299.078
299.087
299.091
299.097
299.101
299.111
299.116
299.119
299.126
299.129
299.131
299.134
299.132
299.126
299.126
299.115
299.127
299.129
299.137
299.143
299.151
299.154
299.158
299.155
299.156
299.158
299.155
299.153
299.153
299.15
299.15
299.147
299.136
299.134
299.131
299.121
299.119
299.114
299.109
299.115
299.119
299.12
299.124
299.134
299.142
299.147
299.15
299.152
299.155
299.151
299.15
299.149
299.148
299.147
299.15
299.151
299.143
299.14
299.141
299.132
299.13
299.12
299.118
299.114
299.107
299.1
299.109
299.115
299.116
299.115
299.108
299.108
299.095
299.083
299.091
299.088
299.086
299.086
299.08
299.094
299.1
299.11
299.114
299.116
299.12
299.123
299.123
299.124
299.116
299.117
299.107
299.105
299.101
299.093
299.084
299.082
299.082
299.084
299.091
299.096
299.098
299.105
299.112
299.115
299.12
299.116
299.113
299.109
299.097
299.093
299.084
299.09
299.092
299.091
299.092
299.093
299.09
299.093
299.085
299.097
299.106
299.108
299.116
299.118
299.119
299.121
299.12
299.12
299.112
299.111
299.109
299.101
299.1
299.093
299.09
299.086
299.08
299.088
299.089
299.093
299.09
299.088
299.081
299.075
299.076
299.081
299.086
299.085
299.082
299.086
299.083
299.084
299.081
299.075
299.062
299.061
299.066
299.067
299.066
299.067
299.075
299.082
299.084
299.093
299.094
299.092
299.088
299.076
299.079
299.076
299.071
299.066
299.061
299.056
299.058
299.057
291.047
291.045
291.051
291.052
291.056
291.063
291.061
291.065
291.071
291.077
291.086
291.088
291.087
291.091
291.1
291.109
291.112
291.117
291.121
291.125
291.131
291.135
291.136
291.137
291.135
291.134
291.132
291.13
291.128
291.127
291.123
291.115
291.109
291.103
291.095
291.087
291.08
291.073
291.064
291.054
291.044
291.035
291.026
291.014
290.997
290.98
290.966
290.944
290.911
290.88
290.862
290.853
290.831
290.797
290.772
290.764
290.762
290.733
290.674
290.646
290.652
290.646
290.591
290.522
290.491
290.464
290.43
290.393
290.367
290.34
290.316
290.282
290.256
290.222
290.197
290.183
290.147
290.088
290.049
290.041
290.061
290.076
290.068
289.998
289.985
290.004
290.08
290.078
290.09
290.036
290.069
290.206
290.329
290.45
290.581
290.735
290.911
291.126
291.366
291.627
291.954
292.331
292.772
293.278
293.846
294.484
295.158
295.774
296.361
296.86
297.318
297.696
298.009
298.259
298.45
298.586
298.68
298.742
298.776
298.794
298.799
298.801
298.789
298.792
298.797
298.799
298.802
298.806
298.812
298.818
298.823
298.822
298.822
298.819
298.822
298.817
298.819
298.811
298.79
298.763
298.76
298.76
298.764
298.77
298.779
298.794
298.793
298.797
298.791
298.787
298.785
298.784
298.791
298.791
298.805
298.813
298.811
298.822
298.824
298.827
298.827
298.821
298.826
298.823
298.821
298.813
298.809
298.82
298.821
298.828
298.83
298.832
298.829
298.824
298.804
298.805
298.802
298.798
298.794
298.79
298.787
298.789
298.8
298.809
298.807
298.82
298.814
298.814
298.808
298.806
298.814
298.814
298.818
298.821
298.817
298.817
298.83
298.821
298.831
298.833
298.833
298.822
298.818
298.814
298.818
298.825
298.822
298.819
298.811
298.808
298.803
298.794
298.801
298.795
298.804
298.805
298.794
298.797
298.799
298.793
298.79
298.788
298.799
298.793
298.794
298.799
298.796
298.798
298.801
298.811
298.808
298.812
298.814
298.821
298.813
298.814
298.817
298.812
298.809
298.799
298.801
298.794
298.794
298.803
298.81
298.81
298.809
298.795
298.794
298.794
298.798
298.817
298.825
298.832
298.839
298.835
298.835
298.835
298.823
298.822
298.815
298.799
298.793
298.794
298.781
298.78
298.788
298.786
298.784
298.776
298.785
298.803
298.808
298.813
298.815
298.821
298.831
298.828
298.825
298.835
298.843
298.842
298.841
298.84
298.827
298.832
298.828
298.824
298.806
298.8
298.794
298.781
298.768
298.765
298.775
298.771
298.773
298.775
298.768
298.773
298.772
298.763
298.77
298.77
298.76
298.756
298.761
298.766
298.776
298.777
298.777
298.782
298.789
298.799
298.811
298.813
298.816
298.813
298.813
298.802
298.807
298.804
298.793
298.793
298.796
298.799
298.8
298.792
298.781
298.778
298.778
298.78
298.787
298.792
298.784
298.783
298.792
298.798
298.807
298.816
298.824
298.819
298.822
298.834
298.84
298.846
298.847
298.843
298.835
298.829
298.815
298.825
298.818
298.837
298.846
298.86
298.865
298.869
298.87
298.874
298.874
298.865
298.865
298.862
298.864
298.865
298.859
298.853
298.856
298.845
298.828
298.824
298.812
298.812
298.824
298.819
298.827
298.839
298.845
298.852
298.859
298.864
298.873
298.876
298.869
298.865
298.866
298.863
298.864
298.868
298.864
298.859
298.862
298.856
298.84
298.843
298.832
298.836
298.825
298.814
298.803
298.796
298.808
298.825
298.837
298.836
298.83
298.808
298.804
298.8
298.786
298.789
298.792
298.794
298.801
298.798
298.806
298.806
298.815
298.83
298.837
298.839
298.834
298.824
298.828
298.816
298.826
298.822
298.812
298.799
298.785
298.792
298.795
298.797
298.796
298.803
298.814
298.823
298.831
298.836
298.832
298.833
298.826
298.811
298.808
298.803
298.808
298.805
298.801
298.805
298.803
298.8
298.8
298.786
298.793
298.8
298.811
298.828
298.833
298.844
298.84
298.835
298.833
298.82
298.827
298.829
298.822
298.825
298.816
298.809
298.799
298.793
298.792
298.799
298.812
298.811
298.812
298.801
298.79
298.787
298.789
298.791
298.788
298.794
298.801
298.794
298.801
298.801
298.798
298.789
298.785
298.777
298.777
298.776
298.776
298.778
298.782
298.792
298.803
298.799
298.801
298.804
298.793
298.785
298.791
298.793
298.789
298.777
298.776
298.777
298.778
298.785
290.924
290.926
290.927
290.931
290.935
290.939
290.943
290.948
290.955
290.962
290.969
290.974
290.979
290.988
290.997
291.006
291.013
291.021
291.028
291.035
291.042
291.048
291.053
291.056
291.058
291.059
291.059
291.059
291.059
291.058
291.055
291.05
291.043
291.036
291.029
291.022
291.016
291.006
290.994
290.982
290.971
290.96
290.946
290.931
290.914
290.895
290.871
290.841
290.805
290.768
290.737
290.712
290.689
290.663
290.633
290.6
290.563
290.53
290.501
290.468
290.425
290.386
290.345
290.312
290.277
290.233
290.178
290.123
290.063
290.015
289.971
289.927
289.898
289.884
289.853
289.837
289.756
289.685
289.639
289.616
289.614
289.626
289.605
289.534
289.496
289.494
289.572
289.603
289.586
289.556
289.613
289.699
289.848
289.974
290.093
290.231
290.407
290.623
290.886
291.168
291.496
291.922
292.409
292.915
293.527
294.18
294.88
295.562
296.145
296.66
297.089
297.457
297.754
297.981
298.147
298.269
298.35
298.398
298.425
298.438
298.427
298.387
298.403
298.376
298.367
298.403
298.426
298.432
298.425
298.437
298.436
298.44
298.434
298.434
298.444
298.454
298.444
298.428
298.405
298.338
298.358
298.328
298.359
298.371
298.398
298.407
298.423
298.417
298.41
298.409
298.398
298.397
298.368
298.415
298.423
298.426
298.435
298.439
298.449
298.453
298.456
298.458
298.447
298.438
298.414
298.427
298.428
298.408
298.441
298.459
298.467
298.464
298.454
298.441
298.43
298.38
298.409
298.413
298.401
298.407
298.408
298.401
298.417
298.425
298.442
298.437
298.447
298.435
298.421
298.419
298.404
298.425
298.424
298.398
298.433
298.444
298.44
298.455
298.457
298.459
298.445
298.435
298.406
298.431
298.438
298.435
298.439
298.431
298.421
298.392
298.404
298.41
298.38
298.415
298.423
298.425
298.427
298.403
298.37
298.408
298.414
298.408
298.376
298.411
298.415
298.385
298.417
298.431
298.437
298.434
298.428
298.394
298.422
298.427
298.442
298.44
298.433
298.423
298.43
298.436
298.431
298.42
298.373
298.405
298.422
298.431
298.422
298.412
298.368
298.401
298.424
298.435
298.446
298.454
298.455
298.466
298.462
298.453
298.456
298.446
298.43
298.412
298.401
298.369
298.396
298.41
298.41
298.409
298.39
298.344
298.394
298.411
298.433
298.436
298.435
298.444
298.444
298.457
298.466
298.466
298.463
298.468
298.468
298.457
298.45
298.44
298.44
298.433
298.434
298.421
298.402
298.38
298.333
298.369
298.35
298.391
298.388
298.36
298.383
298.377
298.367
298.385
298.388
298.382
298.372
298.329
298.375
298.388
298.391
298.382
298.385
298.361
298.402
298.431
298.439
298.448
298.443
298.443
298.435
298.435
298.422
298.418
298.41
298.375
298.413
298.427
298.43
298.428
298.421
298.403
298.369
298.405
298.417
298.411
298.404
298.367
298.403
298.424
298.434
298.438
298.437
298.449
298.451
298.447
298.455
298.467
298.476
298.473
298.464
298.447
298.433
298.398
298.435
298.452
298.472
298.479
298.49
298.501
298.503
298.498
298.49
298.483
298.459
298.469
298.472
298.474
298.478
298.481
298.466
298.46
298.454
298.434
298.424
298.413
298.416
298.439
298.449
298.442
298.444
298.471
298.489
298.503
298.499
298.49
298.495
298.49
298.477
298.467
298.474
298.474
298.483
298.486
298.471
298.464
298.467
298.453
298.45
298.438
298.439
298.43
298.411
298.36
298.427
298.453
298.458
298.456
298.436
298.425
298.404
298.366
298.39
298.387
298.4
298.394
298.371
298.408
298.417
298.418
298.428
298.445
298.458
298.457
298.457
298.457
298.442
298.443
298.432
298.433
298.431
298.409
298.352
298.389
298.395
298.39
298.411
298.415
298.408
298.431
298.443
298.451
298.463
298.462
298.453
298.445
298.426
298.41
298.378
298.402
298.414
298.396
298.415
298.422
298.415
298.405
298.362
298.41
298.433
298.439
298.451
298.444
298.447
298.451
298.436
298.443
298.438
298.439
298.447
298.439
298.433
298.415
298.389
298.391
298.366
298.413
298.425
298.438
298.431
298.425
298.41
298.378
298.395
298.404
298.41
298.422
298.419
298.425
298.422
298.426
298.422
298.408
298.353
298.345
298.382
298.384
298.38
298.356
298.392
298.409
298.41
298.425
298.429
298.422
298.412
298.35
298.404
298.417
298.413
298.406
298.388
298.368
298.387
298.392
290.874
290.875
290.878
290.882
290.887
290.894
290.9
290.907
290.916
290.926
290.936
290.944
290.953
290.965
290.978
290.99
291.001
291.012
291.023
291.033
291.042
291.051
291.059
291.066
291.07
291.073
291.074
291.076
291.077
291.078
291.077
291.072
291.065
291.057
291.049
291.045
291.038
291.026
291.011
290.997
290.984
290.97
290.952
290.931
290.911
290.89
290.863
290.825
290.778
290.734
290.697
290.667
290.636
290.6
290.562
290.524
290.484
290.438
290.387
290.339
290.294
290.244
290.194
290.141
290.082
290.015
289.951
289.887
289.829
289.768
289.713
289.651
289.633
289.596
289.579
289.532
289.421
289.321
289.27
289.251
289.278
289.256
289.154
289.075
289.062
289.113
289.078
289.091
289.062
289.087
289.105
289.166
289.28
289.405
289.531
289.68
289.886
290.116
290.383
290.736
291.125
291.548
292.063
292.674
293.245
293.957
294.701
295.346
295.898
296.419
296.83
297.171
297.443
297.65
297.806
297.907
297.97
298
298.01
298.017
298.007
297.935
297.964
297.911
297.899
297.962
297.963
297.976
297.946
297.993
298.012
298.003
297.991
297.971
298.006
298.014
298.019
298.002
297.972
297.908
297.925
297.874
297.91
297.882
297.937
297.969
297.975
297.974
297.929
297.943
297.91
297.939
297.899
297.958
297.982
297.981
297.954
297.98
297.983
298.002
297.998
297.986
298.002
297.983
297.923
297.953
297.935
297.918
297.985
298.009
298.016
298.018
298.018
298.003
297.957
297.913
297.973
297.968
297.922
297.936
297.936
297.908
297.962
297.972
297.949
297.99
297.984
297.977
297.93
297.945
297.922
297.974
297.987
297.937
297.985
297.967
297.995
297.966
298.003
298.014
298.021
298.002
297.954
297.979
297.989
297.997
298
298.003
297.986
297.933
297.974
297.965
297.905
297.949
297.974
297.976
297.94
297.952
297.893
297.949
297.955
297.935
297.902
297.969
297.974
297.928
297.961
297.947
297.947
297.981
297.979
297.935
297.972
297.976
297.982
297.995
297.989
297.956
297.974
297.954
297.977
297.966
297.923
297.975
297.99
297.985
297.974
297.956
297.9
297.932
297.926
297.966
297.97
297.996
298.012
298.008
298.01
297.996
297.969
297.99
297.981
297.922
297.94
297.885
297.928
297.93
297.953
297.948
297.947
297.886
297.926
297.966
297.98
297.987
297.957
297.996
298.014
298.01
297.992
298.015
298.016
298.001
298.014
298.005
297.955
297.972
297.982
297.975
297.936
297.949
297.939
297.918
297.873
297.923
297.887
297.946
297.952
297.905
297.937
297.933
297.881
297.9
297.932
297.936
297.918
297.876
297.93
297.913
297.942
297.915
297.948
297.911
297.972
297.988
298.001
298
298.002
297.992
297.978
297.937
297.972
297.978
297.965
297.924
297.98
297.997
297.995
297.985
297.955
297.954
297.92
297.968
297.986
297.991
297.972
297.927
297.976
297.979
297.968
297.975
297.974
297.975
297.976
297.999
298.018
298.029
298.027
298.015
297.988
297.976
297.92
297.88
297.926
297.995
298.022
298.034
298.041
298.036
298.028
298.012
298.026
298.009
297.961
298
298.006
298.022
298.025
298.017
298.018
298.005
297.955
297.96
297.918
297.902
297.948
297.954
297.981
297.996
297.972
298.023
298.046
298.053
298.061
298.061
298.042
298.013
298.016
297.983
298.014
298.031
298.031
298.015
298.009
298.001
297.965
297.988
297.952
297.983
297.977
297.96
297.946
297.902
297.959
298.009
298.031
298.019
297.996
297.929
297.945
297.883
297.914
297.893
297.938
297.934
297.88
297.94
297.958
297.906
297.918
297.994
298.018
298.021
298.002
297.964
297.972
297.937
297.976
297.98
297.984
297.966
297.904
297.952
297.951
297.909
297.945
297.958
297.921
297.961
297.994
298.009
298.01
298.011
298.004
297.966
297.955
297.949
297.896
297.958
297.956
297.909
297.961
297.956
297.954
297.916
297.884
297.95
297.961
297.988
298.003
298.011
297.997
297.989
297.99
297.947
297.98
297.996
297.996
297.997
297.994
297.973
297.904
297.947
297.914
297.972
297.987
297.995
297.997
297.987
297.958
297.929
297.957
297.963
297.921
297.957
297.963
297.934
297.979
297.985
297.991
297.967
297.896
297.9
297.953
297.921
297.944
297.903
297.953
297.963
297.964
297.942
297.959
297.969
297.95
297.897
297.967
297.981
297.969
297.947
297.935
297.882
297.941
297.967
290.914
290.915
290.919
290.924
290.93
290.939
290.947
290.956
290.968
290.98
290.994
291.006
291.019
291.035
291.052
291.067
291.081
291.096
291.11
291.123
291.135
291.147
291.157
291.166
291.172
291.176
291.179
291.181
291.183
291.183
291.18
291.175
291.169
291.16
291.152
291.143
291.135
291.12
291.104
291.088
291.072
291.057
291.031
291.004
290.981
290.966
290.934
290.881
290.825
290.774
290.733
290.699
290.661
290.61
290.555
290.503
290.458
290.416
290.354
290.276
290.202
290.147
290.11
290.057
289.965
289.879
289.799
289.704
289.609
289.532
289.474
289.422
289.393
289.344
289.315
289.232
289.108
289.013
288.99
288.961
288.926
288.838
288.731
288.661
288.666
288.653
288.625
288.581
288.586
288.586
288.604
288.664
288.736
288.856
289.018
289.19
289.408
289.695
289.983
290.328
290.772
291.233
291.735
292.364
293.001
293.715
294.461
295.109
295.671
296.132
296.54
296.865
297.108
297.291
297.406
297.484
297.523
297.54
297.515
297.551
297.545
297.561
297.549
297.538
297.524
297.499
297.45
297.494
297.474
297.515
297.5
297.513
297.478
297.513
297.525
297.539
297.529
297.493
297.521
297.519
297.489
297.478
297.428
297.404
297.452
297.447
297.489
297.488
297.443
297.469
297.434
297.488
297.505
297.504
297.5
297.472
297.444
297.485
297.459
297.499
297.506
297.47
297.505
297.512
297.46
297.475
297.439
297.495
297.498
297.516
297.522
297.514
297.511
297.505
297.47
297.515
297.51
297.496
297.449
297.461
297.439
297.425
297.472
297.451
297.409
297.475
297.506
297.481
297.43
297.467
297.47
297.512
297.53
297.546
297.524
297.472
297.477
297.447
297.515
297.526
297.503
297.522
297.511
297.508
297.471
297.451
297.477
297.49
297.511
297.508
297.486
297.511
297.507
297.461
297.475
297.473
297.411
297.446
297.493
297.501
297.496
297.466
297.508
297.513
297.528
297.513
297.487
297.422
297.409
297.489
297.517
297.511
297.499
297.438
297.457
297.494
297.511
297.511
297.501
297.45
297.502
297.506
297.505
297.473
297.496
297.5
297.449
297.489
297.474
297.422
297.407
297.472
297.437
297.497
297.487
297.52
297.507
297.456
297.435
297.494
297.482
297.424
297.474
297.479
297.442
297.424
297.467
297.437
297.477
297.474
297.412
297.439
297.497
297.5
297.468
297.503
297.501
297.522
297.488
297.531
297.521
297.472
297.521
297.501
297.426
297.424
297.461
297.453
297.405
297.438
297.401
297.399
297.474
297.492
297.515
297.516
297.507
297.49
297.475
297.432
297.409
297.394
297.45
297.428
297.43
297.489
297.475
297.445
297.493
297.471
297.501
297.51
297.49
297.519
297.523
297.509
297.477
297.486
297.455
297.398
297.445
297.468
297.496
297.509
297.507
297.502
297.513
297.497
297.453
297.493
297.502
297.515
297.517
297.497
297.52
297.518
297.494
297.504
297.48
297.496
297.442
297.485
297.456
297.472
297.493
297.522
297.531
297.515
297.464
297.475
297.404
297.415
297.415
297.491
297.514
297.535
297.533
297.536
297.527
297.462
297.516
297.523
297.479
297.492
297.465
297.5
297.498
297.511
297.477
297.484
297.426
297.442
297.401
297.391
297.406
297.417
297.482
297.476
297.527
297.549
297.556
297.57
297.562
297.525
297.533
297.481
297.519
297.494
297.519
297.5
297.517
297.516
297.464
297.47
297.43
297.474
297.424
297.453
297.464
297.439
297.456
297.512
297.497
297.54
297.546
297.525
297.469
297.405
297.46
297.471
297.432
297.421
297.465
297.454
297.418
297.47
297.474
297.41
297.419
297.501
297.516
297.49
297.481
297.418
297.444
297.389
297.426
297.436
297.487
297.499
297.51
297.488
297.468
297.434
297.467
297.465
297.475
297.433
297.476
297.471
297.5
297.526
297.526
297.466
297.485
297.487
297.45
297.459
297.486
297.454
297.481
297.444
297.469
297.417
297.478
297.487
297.444
297.458
297.494
297.465
297.447
297.484
297.443
297.407
297.442
297.449
297.483
297.463
297.49
297.463
297.439
297.484
297.505
297.506
297.465
297.495
297.493
297.488
297.483
297.46
297.472
297.472
297.428
297.474
297.448
297.407
297.464
297.496
297.519
297.535
297.548
297.54
297.519
297.473
297.487
297.49
297.47
297.471
297.432
297.39
297.452
297.464
297.49
297.525
297.512
297.507
297.494
297.447
297.449
297.402
297.453
297.452
291.027
291.029
291.033
291.038
291.046
291.055
291.065
291.077
291.089
291.104
291.119
291.133
291.149
291.168
291.19
291.214
291.224
291.244
291.27
291.286
291.298
291.312
291.329
291.344
291.354
291.361
291.366
291.368
291.372
291.379
291.384
291.379
291.367
291.351
291.34
291.341
291.342
291.323
291.297
291.275
291.261
291.245
291.212
291.169
291.142
291.122
291.083
291.021
290.947
290.887
290.844
290.804
290.756
290.689
290.606
290.534
290.48
290.434
290.367
290.264
290.167
290.093
290.04
289.958
289.844
289.754
289.654
289.54
289.435
289.352
289.29
289.246
289.18
289.108
289.021
288.904
288.797
288.706
288.656
288.595
288.517
288.399
288.33
288.269
288.249
288.166
288.129
288.11
288.096
288.1
288.112
288.151
288.245
288.366
288.532
288.737
288.946
289.23
289.584
289.96
290.384
290.905
291.493
292.085
292.762
293.538
294.254
294.833
295.41
295.858
296.215
296.516
296.73
296.877
296.983
297.036
297.062
297.05
297.018
297.053
297.018
297.085
297.086
297.082
297.065
297.032
296.978
296.982
297.04
297.029
296.97
296.998
296.962
297
297.017
297.015
297.014
296.974
297.007
297.028
296.996
297.005
296.944
296.961
296.931
296.9
296.967
296.999
297.004
296.972
297.007
296.991
297.014
296.975
296.97
296.931
296.98
296.99
296.962
296.991
296.986
296.974
297.012
297.022
297.027
296.969
296.984
296.999
296.966
297.003
296.976
296.964
296.983
297.003
297.021
297.051
297.033
297.003
296.954
296.945
296.953
297.002
296.987
296.916
296.928
296.97
296.951
296.971
296.936
296.954
296.982
297.006
297.047
297.073
297.061
297.027
296.983
297.021
296.985
296.997
296.962
297.026
297.033
296.991
296.942
296.905
296.924
296.949
297.006
297.016
296.973
297.016
297.025
296.98
296.946
296.977
296.973
296.91
296.986
296.961
296.963
297.006
297.033
297.007
297.045
297.043
296.972
296.975
296.919
296.984
297.019
297.025
296.982
296.923
296.952
296.991
296.988
297
296.995
297.006
296.984
296.967
297.015
296.954
296.957
296.952
296.93
296.979
296.994
296.935
296.979
296.962
296.943
296.976
296.944
296.967
296.987
296.936
296.99
296.988
296.993
296.949
296.985
297.015
296.974
296.955
296.973
296.961
297.004
296.992
296.906
296.905
296.978
297.012
297.024
297.011
296.974
297.018
297.024
297.018
296.983
296.971
297.014
297.004
296.944
296.911
296.923
296.93
296.965
296.911
296.884
296.884
296.98
297.009
297.026
296.996
297.003
297.001
296.962
296.906
296.954
296.984
296.953
296.934
296.961
297.018
296.982
297.032
297.026
297.037
297.043
297.036
296.955
296.973
296.996
296.985
296.927
296.959
296.923
296.919
296.917
296.934
296.978
297.012
297.001
296.96
296.985
296.993
296.997
296.996
297.016
297.001
297.002
296.975
297.012
297.033
296.977
297.01
296.995
296.965
296.922
296.95
296.967
296.946
296.954
297.002
297.009
296.974
296.997
296.988
296.989
296.985
297.004
296.993
296.967
296.978
296.962
296.951
296.961
296.941
296.966
296.975
296.982
296.958
296.946
296.972
296.953
296.962
296.929
296.989
296.99
296.934
296.959
296.97
296.918
296.938
296.969
296.944
297.021
297.04
297.007
297.021
297.03
296.963
297.01
296.99
297.028
297.028
296.993
296.946
296.981
296.951
296.92
296.933
296.994
297.006
297.003
296.926
296.923
296.939
296.978
297.039
297.042
297.058
297.045
297.003
296.936
296.916
296.984
297.013
296.995
296.989
296.962
296.938
296.91
296.948
296.994
297.029
297.034
297.017
297.006
296.943
296.97
296.919
296.948
296.911
296.889
296.896
296.965
296.972
296.955
296.973
296.972
296.928
296.955
296.924
296.967
296.923
296.956
296.908
296.926
296.975
297.014
297.041
297.025
297.017
297.011
296.959
297.005
297.018
297.014
296.972
296.977
296.943
297
296.989
296.993
296.953
296.981
296.918
296.911
296.936
296.893
296.932
296.884
296.878
296.938
296.932
296.989
296.969
297.013
296.994
297.038
297.007
296.933
296.976
296.955
296.972
296.948
296.96
296.957
296.986
296.996
296.955
296.913
296.926
296.974
296.97
297.009
297.034
297.084
297.099
297.082
297.06
297.032
296.996
296.966
296.952
296.882
296.856
296.886
296.878
296.912
296.974
297
297.003
296.986
296.98
296.978
296.923
296.957
296.925
291.218
291.22
291.226
291.233
291.242
291.256
291.268
291.283
291.302
291.32
291.341
291.361
291.382
291.404
291.432
291.459
291.47
291.493
291.52
291.537
291.549
291.564
291.581
291.595
291.604
291.61
291.615
291.616
291.617
291.62
291.622
291.614
291.599
291.58
291.565
291.56
291.549
291.53
291.501
291.472
291.449
291.418
291.381
291.336
291.295
291.251
291.2
291.141
291.072
291.004
290.946
290.887
290.82
290.746
290.666
290.586
290.507
290.429
290.345
290.252
290.159
290.061
289.964
289.855
289.753
289.651
289.52
289.383
289.271
289.177
289.1
289.039
288.953
288.836
288.702
288.591
288.504
288.428
288.331
288.223
288.132
288.036
287.976
287.915
287.833
287.726
287.668
287.638
287.648
287.615
287.617
287.665
287.76
287.899
288.058
288.284
288.558
288.847
289.192
289.65
290.108
290.602
291.23
291.852
292.572
293.336
294.03
294.605
295.105
295.546
295.894
296.147