/*--------------------------------*- C++ -*----------------------------------*\
| =========                 |                                                 |
| \\      /  F ield         | OpenFOAM: The Open Source CFD Toolbox           |
|  \\    /   O peration     | Version:  v2012                                 |
|   \\  /    A nd           | Website:  www.openfoam.com                      |
|    \\/     M anipulation  |                                                 |
\*---------------------------------------------------------------------------*/
FoamFile
{
    version     2.0;
    format      ascii;
    class       volScalarField;
    location    "350";
    object      theta;
}
// * * * * * * * * * * * * * * * * * * * * * * * * * * * * * * * * * * * * * //

dimensions      [0 0 0 1 0 0 0];


internalField   nonuniform List<scalar> 
65536
(
-8.26345
-8.26039
-8.26404
-8.26382
-8.26619
-8.27022
-8.2692
-8.27125
-8.27465
-8.27785
-8.28162
-8.28334
-8.28387
-8.28557
-8.28779
-8.28963
-8.29038
-8.29155
-8.29266
-8.29395
-8.29552
-8.29712
-8.29903
-8.3017
-8.30487
-8.30853
-8.31255
-8.31679
-8.32147
-8.32688
-8.33281
-8.33908
-8.34596
-8.3531
-8.36035
-8.36822
-8.37672
-8.38537
-8.39418
-8.40329
-8.41273
-8.42282
-8.43375
-8.44535
-8.45774
-8.47167
-8.48714
-8.50302
-8.51881
-8.53495
-8.55255
-8.5698
-8.5852
-8.59859
-8.61428
-8.63269
-8.64906
-8.6618
-8.66491
-8.67671
-8.69723
-8.71013
-8.70706
-8.66971
-8.63992
-8.62424
-8.61042
-8.60792
-8.59435
-8.58558
-8.59679
-8.58908
-8.62239
-8.67597
-8.7266
-8.76549
-8.71266
-8.66343
-8.65258
-8.69389
-8.82463
-8.87784
-8.83166
-8.75868
-8.77842
-8.91294
-8.98563
-9.01705
-9.02061
-8.92619
-8.78268
-8.76925
-8.76321
-8.71062
-8.61795
-8.48658
-8.31508
-8.10616
-7.86298
-7.58332
-7.26041
-6.88573
-6.45811
-5.97731
-5.44817
-4.88117
-4.29602
-3.71735
-3.16311
-2.64785
-2.18272
-1.77501
-1.43015
-1.15109
-0.936985
-0.785387
-0.682667
-0.615373
-0.572827
-0.54808
-0.536476
-0.529414
-0.529862
-0.528453
-0.527333
-0.525413
-0.520674
-0.517757
-0.515289
-0.51293
-0.511745
-0.511529
-0.510948
-0.510901
-0.51144
-0.513572
-0.516184
-0.521874
-0.530113
-0.537635
-0.544303
-0.546685
-0.547478
-0.546482
-0.542611
-0.537301
-0.535095
-0.533154
-0.533529
-0.53446
-0.534765
-0.533734
-0.529665
-0.52752
-0.523109
-0.517431
-0.513667
-0.509135
-0.505084
-0.502913
-0.50118
-0.501114
-0.501028
-0.501708
-0.502361
-0.503117
-0.503804
-0.50148
-0.500468
-0.49916
-0.498342
-0.499748
-0.502532
-0.507235
-0.513304
-0.516409
-0.522335
-0.525891
-0.528565
-0.529817
-0.529752
-0.529282
-0.52515
-0.519539
-0.515488
-0.512594
-0.511179
-0.510067
-0.508953
-0.510047
-0.508983
-0.508047
-0.506485
-0.503036
-0.502511
-0.501397
-0.499601
-0.499188
-0.498249
-0.498958
-0.501442
-0.504467
-0.506453
-0.50836
-0.509352
-0.510316
-0.513777
-0.51665
-0.519831
-0.522197
-0.524822
-0.526821
-0.525209
-0.525431
-0.524531
-0.524097
-0.525565
-0.526168
-0.525766
-0.528386
-0.529657
-0.529027
-0.527041
-0.527755
-0.525663
-0.522259
-0.521319
-0.519227
-0.516959
-0.51452
-0.51356
-0.511728
-0.512336
-0.511639
-0.512415
-0.514197
-0.515254
-0.516274
-0.518419
-0.520857
-0.522349
-0.524172
-0.524143
-0.523971
-0.522586
-0.521745
-0.520654
-0.521354
-0.519553
-0.51837
-0.515167
-0.50887
-0.50379
-0.500172
-0.497433
-0.496296
-0.496087
-0.496544
-0.500626
-0.504339
-0.510021
-0.517095
-0.523082
-0.526731
-0.532868
-0.534889
-0.534522
-0.534785
-0.533666
-0.530978
-0.528151
-0.522415
-0.519
-0.515527
-0.512784
-0.509606
-0.505995
-0.503387
-0.50086
-0.497179
-0.493981
-0.492172
-0.491249
-0.490798
-0.492857
-0.493931
-0.497767
-0.5033
-0.510546
-0.517005
-0.523067
-0.53133
-0.537668
-0.543536
-0.544194
-0.547379
-0.548351
-0.548518
-0.549774
-0.55033
-0.551943
-0.552839
-0.552846
-0.554353
-0.554349
-0.553514
-0.553952
-0.55256
-0.550227
-0.548817
-0.546205
-0.542204
-0.538457
-0.532437
-0.526633
-0.521904
-0.51868
-0.516824
-0.51656
-0.517678
-0.520249
-0.523178
-0.526933
-0.528727
-0.531178
-0.533387
-0.535354
-0.538853
-0.542945
-0.545998
-0.546555
-0.546825
-0.545296
-0.543783
-0.54227
-0.538995
-0.534763
-0.529051
-0.52208
-0.515331
-0.508706
-0.504125
-0.498805
-0.49346
-0.489194
-0.484627
-0.481784
-0.481623
-0.483066
-0.485237
-0.488949
-0.488292
-0.488722
-0.483804
-0.478032
-0.472307
-0.467293
-0.462195
-0.458506
-0.455407
-0.455018
-0.456331
-0.457986
-0.458929
-0.460964
-0.462374
-0.465269
-0.468548
-0.471575
-0.478113
-0.485175
-0.490305
-0.495899
-0.497721
-0.496543
-0.495446
-0.493332
-0.489974
-0.485095
-0.480642
-0.475127
-0.469851
-0.465941
-0.463794
-0.462619
-0.461612
-0.462386
-0.46312
-0.46296
-0.46233
-0.46355
-0.465624
-0.466719
-0.469928
-0.475259
-0.479277
-0.485058
-0.489045
-0.494782
-0.499521
-0.502064
-0.50192
-0.501601
-0.49939
-0.497945
-0.499275
-0.50229
-0.509049
-0.512856
-0.515803
-0.522343
-0.523972
-0.523398
-0.522257
-0.517784
-0.516527
-0.511514
-0.507583
-0.502255
-0.496734
-0.493347
-0.492422
-0.49253
-0.494593
-0.495292
-0.498263
-0.500427
-0.50518
-0.510788
-0.516558
-0.521232
-0.523652
-0.52418
-0.522616
-0.519295
-0.514351
-0.507784
-0.503004
-0.49951
-0.497138
-0.497903
-0.499378
-0.503518
-0.508584
-0.511838
-0.516476
-0.517829
-0.520271
-0.520491
-0.520954
-0.520572
-0.520985
-0.521006
-0.521929
-0.517575
-0.514427
-0.508748
-0.50138
-0.497012
-0.493612
-0.49208
-0.493144
-0.495322
-0.498113
-0.499473
-0.503388
-0.506893
-0.510481
-0.515617
-0.519359
-0.523359
-0.524526
-0.522778
-0.522764
-0.520988
-0.521382
-0.522847
-0.526521
-0.53005
-0.533057
-0.5341
-0.533477
-0.53229
-0.529805
-0.527898
-0.528877
-0.529326
-0.531037
-0.533045
-0.535101
-0.535565
-0.53798
-0.540921
-0.542222
-0.542038
-0.540245
-0.536352
-0.530504
-0.524485
-0.522386
-0.520697
-0.521893
-0.524292
-0.526521
-0.531922
-0.536608
-0.541588
-0.546335
-0.550554
-0.552757
-0.553702
-0.553245
-7.96156
-7.96602
-7.9585
-7.96029
-7.95755
-7.95081
-7.95585
-7.95469
-7.95115
-7.94811
-7.94255
-7.94312
-7.94715
-7.94606
-7.9411
-7.93593
-7.93553
-7.93333
-7.9327
-7.93229
-7.92978
-7.92858
-7.92983
-7.93108
-7.93438
-7.9381
-7.94106
-7.94488
-7.94901
-7.95139
-7.95596
-7.96482
-7.97179
-7.97743
-7.98595
-7.99483
-8.00174
-8.00866
-8.01649
-8.02534
-8.03542
-8.04456
-8.05242
-8.06283
-8.07849
-8.09393
-8.1051
-8.12146
-8.14628
-8.17145
-8.18461
-8.19063
-8.20796
-8.23897
-8.26085
-8.26473
-8.26213
-8.27825
-8.32782
-8.35421
-8.34213
-8.34382
-8.36878
-8.42527
-8.45825
-8.46592
-8.48095
-8.50197
-8.54255
-8.57429
-8.5897
-8.59135
-8.61821
-8.65266
-8.70676
-8.6804
-8.70185
-8.70031
-8.70958
-8.72116
-8.70393
-8.72233
-8.79747
-8.77769
-8.77341
-8.75545
-8.76518
-8.76739
-8.77323
-8.76863
-8.73744
-8.61916
-8.51986
-8.43334
-8.32641
-8.18781
-8.01178
-7.79453
-7.53931
-7.25147
-6.93117
-6.56132
-6.12863
-5.6439
-5.104
-4.51278
-3.90638
-3.30872
-2.74925
-2.23075
-1.77519
-1.38014
-1.05007
-0.785728
-0.582774
-0.434083
-0.332907
-0.265487
-0.22266
-0.198406
-0.186096
-0.191753
-0.186084
-0.192118
-0.19192
-0.181599
-0.175552
-0.167572
-0.164882
-0.163351
-0.162324
-0.161967
-0.164856
-0.16505
-0.16364
-0.159495
-0.165869
-0.174991
-0.184671
-0.197733
-0.204769
-0.212211
-0.207786
-0.199616
-0.192657
-0.191572
-0.184374
-0.185785
-0.184361
-0.183607
-0.184754
-0.184985
-0.19099
-0.178614
-0.173354
-0.17124
-0.163005
-0.160303
-0.156346
-0.151582
-0.150212
-0.147651
-0.15063
-0.153455
-0.157902
-0.156914
-0.155064
-0.159557
-0.152481
-0.148598
-0.146943
-0.147689
-0.152514
-0.159607
-0.162925
-0.178192
-0.176078
-0.17781
-0.181164
-0.183319
-0.183098
-0.177558
-0.175663
-0.174153
-0.166328
-0.163261
-0.157555
-0.159928
-0.163951
-0.161982
-0.165784
-0.161768
-0.160951
-0.165397
-0.156368
-0.150364
-0.15011
-0.143158
-0.145729
-0.148662
-0.151987
-0.155636
-0.163177
-0.161686
-0.16109
-0.164195
-0.162358
-0.166573
-0.172268
-0.180877
-0.181354
-0.178401
-0.186121
-0.177658
-0.17617
-0.175078
-0.171517
-0.177479
-0.188172
-0.183439
-0.182199
-0.185184
-0.190947
-0.179746
-0.178275
-0.181178
-0.170493
-0.164457
-0.161826
-0.165088
-0.166108
-0.171781
-0.166682
-0.167275
-0.162433
-0.161965
-0.16744
-0.171481
-0.171477
-0.167772
-0.17202
-0.174773
-0.182345
-0.178866
-0.175564
-0.173264
-0.176409
-0.17476
-0.180104
-0.171224
-0.161751
-0.16164
-0.156353
-0.150675
-0.147543
-0.143345
-0.144462
-0.15
-0.147495
-0.153935
-0.159593
-0.164603
-0.174366
-0.188771
-0.181916
-0.181341
-0.186035
-0.185726
-0.189333
-0.191933
-0.18235
-0.1791
-0.169271
-0.165657
-0.161901
-0.158971
-0.157386
-0.150208
-0.143616
-0.144104
-0.144201
-0.141568
-0.14003
-0.142471
-0.13979
-0.148937
-0.15261
-0.157953
-0.158797
-0.167365
-0.181256
-0.190329
-0.200245
-0.199003
-0.208247
-0.201393
-0.202895
-0.207513
-0.202757
-0.205277
-0.20551
-0.202794
-0.206936
-0.207166
-0.209682
-0.214204
-0.205728
-0.201113
-0.201597
-0.199883
-0.199445
-0.199739
-0.188208
-0.18145
-0.176331
-0.170812
-0.167363
-0.165351
-0.166138
-0.1663
-0.170799
-0.175047
-0.176853
-0.185312
-0.182284
-0.179353
-0.182288
-0.184477
-0.187293
-0.193427
-0.201103
-0.196028
-0.193573
-0.192957
-0.19154
-0.193833
-0.186403
-0.177531
-0.172822
-0.167229
-0.163144
-0.15297
-0.148585
-0.145528
-0.138388
-0.135386
-0.132793
-0.130722
-0.132015
-0.138031
-0.138488
-0.14915
-0.137703
-0.135615
-0.127727
-0.121527
-0.113431
-0.109874
-0.106477
-0.108942
-0.107936
-0.106092
-0.109504
-0.110757
-0.111431
-0.114385
-0.114466
-0.116751
-0.127762
-0.130647
-0.133664
-0.143511
-0.145157
-0.150526
-0.155724
-0.149148
-0.145377
-0.14382
-0.14045
-0.130444
-0.122586
-0.117453
-0.114637
-0.111831
-0.109699
-0.112786
-0.114627
-0.115426
-0.115969
-0.117067
-0.114143
-0.113169
-0.121101
-0.124604
-0.123467
-0.132575
-0.134631
-0.144594
-0.146578
-0.150449
-0.157077
-0.163965
-0.155584
-0.149412
-0.14828
-0.149651
-0.15633
-0.156281
-0.168783
-0.181
-0.173514
-0.175895
-0.177765
-0.178586
-0.183882
-0.170197
-0.164613
-0.154217
-0.149937
-0.148025
-0.14404
-0.141087
-0.141361
-0.140219
-0.148388
-0.147513
-0.156859
-0.159374
-0.163684
-0.171288
-0.180699
-0.182458
-0.181772
-0.180467
-0.173315
-0.167927
-0.166705
-0.159528
-0.152271
-0.148764
-0.144113
-0.148055
-0.151256
-0.155453
-0.16712
-0.171127
-0.180124
-0.174716
-0.172712
-0.173057
-0.171815
-0.171218
-0.174559
-0.171265
-0.179588
-0.167268
-0.158424
-0.156438
-0.147922
-0.146729
-0.144944
-0.143471
-0.144079
-0.143787
-0.151821
-0.153178
-0.155325
-0.162857
-0.1639
-0.170856
-0.173768
-0.177935
-0.184087
-0.176232
-0.175465
-0.171411
-0.174565
-0.176591
-0.183585
-0.189508
-0.188155
-0.183445
-0.178419
-0.179088
-0.182591
-0.17809
-0.180756
-0.180522
-0.183303
-0.1894
-0.202546
-0.203487
-0.19855
-0.197414
-0.197919
-0.197525
-0.18882
-0.182548
-0.180343
-0.171365
-0.170275
-0.171808
-0.176461
-0.187774
-0.185701
-0.18804
-0.19328
-0.198011
-0.203703
-0.208237
-0.206371
-0.20747
-7.72673
-7.72925
-7.7228
-7.72219
-7.71793
-7.71045
-7.71234
-7.70909
-7.70277
-7.69629
-7.68819
-7.68615
-7.68698
-7.68243
-7.67371
-7.66513
-7.66139
-7.65636
-7.65256
-7.64884
-7.64313
-7.63896
-7.63774
-7.63705
-7.63833
-7.64012
-7.64131
-7.64328
-7.64558
-7.64669
-7.65038
-7.65845
-7.66519
-7.67099
-7.67916
-7.68716
-7.69347
-7.70072
-7.70969
-7.71961
-7.7299
-7.73897
-7.7476
-7.75977
-7.77684
-7.79336
-7.80776
-7.83017
-7.86248
-7.89344
-7.9114
-7.92063
-7.94229
-7.9771
-8.00158
-8.01016
-8.01206
-8.04029
-8.09961
-8.12809
-8.12198
-8.12733
-8.18315
-8.25154
-8.28259
-8.30951
-8.34355
-8.3803
-8.40676
-8.4333
-8.45794
-8.49219
-8.51825
-8.55197
-8.57654
-8.59034
-8.62719
-8.68551
-8.72476
-8.73245
-8.71272
-8.69824
-8.70535
-8.77614
-8.78915
-8.76981
-8.69386
-8.69605
-8.68343
-8.7373
-8.70473
-8.56797
-8.44453
-8.32374
-8.19272
-8.03867
-7.86242
-7.64758
-7.40762
-7.14705
-6.82001
-6.44311
-6.00126
-5.49621
-4.92784
-4.29018
-3.61539
-2.99949
-2.41288
-1.91349
-1.45577
-1.07727
-0.764419
-0.515155
-0.324182
-0.187992
-0.093319
-0.0319147
0.0023704
0.0201635
0.0251555
0.0268592
0.0151326
0.0183947
0.0237048
0.0253715
0.0279561
0.031916
0.0385785
0.0443272
0.0489985
0.0485353
0.0484272
0.0454556
0.047903
0.0434104
0.0451945
0.0376865
0.0158494
-0.0103805
-0.0137124
-0.0139337
-0.00981682
-0.00404049
0.00483775
0.0199783
0.0194177
0.0235466
0.0171952
0.0137491
0.0116381
0.010209
0.0176211
0.0175249
0.0313207
0.03913
0.0377104
0.0481921
0.0505803
0.0532258
0.0528904
0.0476752
0.0522782
0.0497188
0.0472877
0.0389898
0.0349381
0.0461444
0.0471926
0.0542312
0.0566594
0.0578531
0.0557221
0.0501568
0.0306668
0.0312152
0.0285516
0.0243654
0.0204955
0.0165687
0.0130347
0.0153921
0.025763
0.0355739
0.0332822
0.0465677
0.0402034
0.0398257
0.0341993
0.0317869
0.0402298
0.0402893
0.0438749
0.0469599
0.0429746
0.043507
0.0557741
0.0474906
0.0567532
0.0591413
0.05892
0.0480835
0.0444558
0.0407309
0.0441117
0.0511296
0.0480129
0.0451146
0.0369737
0.0347135
0.0293298
0.0203364
0.0275356
0.0211035
0.029849
0.0312354
0.0201441
0.0230115
0.025635
0.0187603
0.0163912
0.0145166
0.0248038
0.0196827
0.0202399
0.0250874
0.0227373
0.0246693
0.0277065
0.0367612
0.034485
0.0379913
0.0400162
0.0475644
0.039402
0.0406566
0.0428515
0.038605
0.0355386
0.0253532
0.0276287
0.0198014
0.0197734
0.0287542
0.0357925
0.0363183
0.0351498
0.0217479
0.0198116
0.0206609
0.0244327
0.0432529
0.0508878
0.0582452
0.0648099
0.0612458
0.0613537
0.0612589
0.0490017
0.0484793
0.0413262
0.0256457
0.0187885
0.0205778
0.00752326
0.00598276
0.0146934
0.0123382
0.00992008
0.00273647
0.0107928
0.029683
0.0337681
0.0395215
0.0412779
0.0473431
0.0574883
0.054594
0.0515315
0.0612348
0.0694103
0.0680812
0.067541
0.0657942
0.0536832
0.0586608
0.0544046
0.0498703
0.0317576
0.0262446
0.0202705
0.00691186
-0.00595444
-0.00854919
0.00147384
-0.0024421
-0.000823095
0.000802282
-0.00572089
-0.000443935
-0.00188646
-0.01093
-0.00424595
-0.00389933
-0.0136255
-0.0174923
-0.0125286
-0.00729092
0.00189273
0.00289184
0.00330092
0.00781769
0.0151702
0.0251564
0.0372192
0.0387909
0.0420447
0.0395261
0.0387989
0.0279407
0.0336597
0.0304207
0.0195568
0.0189965
0.0219338
0.0248415
0.0263468
0.0187429
0.00744697
0.00386775
0.00468207
0.00645074
0.0134299
0.0178293
0.0100776
0.00904692
0.0179536
0.0242831
0.0330875
0.0427285
0.0503595
0.0456447
0.0484538
0.0604286
0.0663074
0.072453
0.0731081
0.0691205
0.0610597
0.0555767
0.0410781
0.0511522
0.0447076
0.0635642
0.0717977
0.0858839
0.0909003
0.095244
0.0965118
0.100459
0.0997835
0.0907906
0.0912649
0.0879725
0.0903193
0.0911841
0.0854253
0.0790758
0.0826135
0.0710363
0.0538796
0.0503423
0.0379688
0.0384062
0.0502132
0.0455064
0.0527906
0.0654313
0.0716346
0.0783158
0.0847527
0.09056
0.0988861
0.10182
0.094872
0.0917136
0.0925256
0.0892698
0.090643
0.0944242
0.0901987
0.0856678
0.0886954
0.0826138
0.0663196
0.0690804
0.0579786
0.0618836
0.0514065
0.0399289
0.0296985
0.022426
0.0342528
0.0510219
0.0630937
0.0623087
0.0558391
0.0344511
0.0303601
0.0260195
0.0122717
0.0150971
0.0182903
0.0206667
0.0275334
0.0246986
0.0325799
0.0318746
0.0408262
0.0564005
0.0628585
0.0654638
0.0605962
0.0506128
0.0547465
0.0427041
0.0527153
0.0482965
0.0386798
0.0251197
0.0114971
0.0181199
0.0216831
0.0228682
0.0226425
0.0296832
0.0402433
0.0488734
0.0575495
0.0623225
0.0584971
0.0588427
0.0525471
0.0377047
0.0342241
0.0293718
0.0345837
0.0307919
0.0269379
0.031059
0.0292075
0.0267471
0.0259986
0.0121912
0.0196504
0.0258275
0.0369396
0.0540591
0.0589537
0.0697515
0.0666153
0.0616188
0.0587718
0.0466022
0.0534821
0.0547544
0.0481619
0.0512713
0.0421018
0.0355088
0.0253028
0.0191707
0.0182415
0.0251037
0.0387461
0.0367852
0.0381447
0.0268284
0.0159441
0.0134372
0.0150739
0.0172103
0.0146354
0.0201529
0.0276088
0.0200066
0.0270479
0.0268657
0.0238667
0.0155167
0.0115019
0.00306579
0.00280802
0.00228815
0.00272933
0.00410466
0.00861575
0.018616
0.0296688
0.0250548
0.0273745
0.0303338
0.0193501
0.0109747
0.0177152
0.0192794
0.0150395
0.00352082
0.00206861
0.00285914
0.00384515
0.0108709
-7.35919
-7.35774
-7.35578
-7.35246
-7.34854
-7.34451
-7.34012
-7.33528
-7.32863
-7.32117
-7.31474
-7.30955
-7.30389
-7.29573
-7.28586
-7.27714
-7.26979
-7.26266
-7.25554
-7.24855
-7.2413
-7.23507
-7.23053
-7.22732
-7.22538
-7.22457
-7.22412
-7.22416
-7.22466
-7.22565
-7.22829
-7.23347
-7.23992
-7.24696
-7.25422
-7.26079
-7.26756
-7.27713
-7.28918
-7.30124
-7.31217
-7.32332
-7.33676
-7.35272
-7.36957
-7.38818
-7.41196
-7.44234
-7.47848
-7.51499
-7.54602
-7.57145
-7.59417
-7.61998
-7.65031
-7.68301
-7.71987
-7.75364
-7.78218
-7.81568
-7.85819
-7.89676
-7.93783
-7.97134
-8.00628
-8.05064
-8.10539
-8.16014
-8.22035
-8.26787
-8.31206
-8.3561
-8.38548
-8.39962
-8.43067
-8.44632
-8.52719
-8.59779
-8.64413
-8.66699
-8.66912
-8.65747
-8.67777
-8.74924
-8.78761
-8.78928
-8.71166
-8.68001
-8.69746
-8.72706
-8.67055
-8.58444
-8.43498
-8.30933
-8.19071
-8.05235
-7.87584
-7.66004
-7.3975
-7.1155
-6.78715
-6.36173
-5.8747
-5.36797
-4.75602
-4.10293
-3.40318
-2.7217
-2.13864
-1.62291
-1.19401
-0.826073
-0.52967
-0.302484
-0.136161
-0.0144489
0.0664451
0.115184
0.14153
0.155148
0.144031
0.104141
0.120198
0.0924496
0.0834514
0.119835
0.142436
0.14847
0.141825
0.153543
0.153142
0.156315
0.151021
0.150946
0.16088
0.171225
0.161242
0.14524
0.12128
0.0547758
0.0746455
0.0448082
0.0754017
0.0873428
0.114835
0.123444
0.140159
0.133879
0.127184
0.125789
0.114978
0.11403
0.0843284
0.131565
0.140007
0.142874
0.15164
0.155866
0.165716
0.169761
0.172718
0.174634
0.163763
0.154945
0.130513
0.143592
0.144933
0.125013
0.157748
0.17587
0.183562
0.181092
0.170841
0.158136
0.146812
0.0968773
0.12557
0.129951
0.117408
0.123852
0.12515
0.118197
0.133829
0.14171
0.158375
0.153793
0.164078
0.151386
0.137905
0.135741
0.120689
0.14175
0.141155
0.11496
0.149442
0.160285
0.156271
0.171935
0.174246
0.176201
0.162156
0.151575
0.123141
0.148243
0.15447
0.151386
0.155626
0.148026
0.137339
0.108581
0.120604
0.126943
0.0964623
0.131515
0.140095
0.141347
0.143598
0.119866
0.0866707
0.124547
0.130819
0.1247
0.0930403
0.128106
0.132106
0.101842
0.134243
0.147571
0.153918
0.150837
0.144349
0.111155
0.138479
0.144151
0.158354
0.156627
0.150011
0.139875
0.146804
0.152267
0.147652
0.136421
0.0897555
0.121793
0.138375
0.147564
0.138562
0.128446
0.0845589
0.117621
0.140899
0.151281
0.162993
0.171044
0.17208
0.182468
0.178278
0.169339
0.172736
0.16238
0.146633
0.129232
0.117422
0.0856124
0.113112
0.127018
0.126838
0.125577
0.106839
0.0611319
0.110295
0.127709
0.150045
0.153037
0.151725
0.160301
0.160389
0.173339
0.182521
0.182548
0.179471
0.184806
0.184311
0.173999
0.16639
0.15724
0.157028
0.150075
0.150411
0.137689
0.118796
0.0962923
0.0493631
0.0853642
0.0665393
0.107827
0.104998
0.0771586
0.0997754
0.0939209
0.0833115
0.10191
0.104521
0.0982774
0.0885016
0.0454896
0.0922216
0.104646
0.107989
0.0988502
0.101413
0.0775118
0.119082
0.147326
0.15586
0.164917
0.159834
0.160245
0.152061
0.151292
0.138773
0.134546
0.126736
0.0918488
0.129342
0.143435
0.147044
0.14459
0.138236
0.119406
0.0853264
0.12135
0.133551
0.127983
0.12118
0.0836001
0.120206
0.140963
0.150617
0.154686
0.154004
0.165845
0.168124
0.163625
0.172216
0.183522
0.19236
0.189519
0.181078
0.164065
0.149628
0.114327
0.151513
0.168403
0.188289
0.195869
0.207081
0.217953
0.219792
0.214642
0.207162
0.200168
0.175438
0.185814
0.189229
0.190306
0.194947
0.197589
0.182656
0.176966
0.171043
0.150772
0.140522
0.129558
0.132661
0.155943
0.165657
0.158997
0.160579
0.187252
0.205497
0.219361
0.216002
0.207224
0.211271
0.20684
0.193276
0.183383
0.19052
0.190693
0.199572
0.202308
0.187856
0.18112
0.183611
0.169375
0.167047
0.154899
0.155358
0.147209
0.127341
0.0769013
0.143468
0.169545
0.175173
0.173155
0.152912
0.141416
0.120292
0.0830088
0.10707
0.103911
0.116521
0.111166
0.0878998
0.124373
0.133403
0.134379
0.144389
0.16195
0.174307
0.173254
0.173693
0.173859
0.15891
0.159662
0.148599
0.149752
0.147448
0.126106
0.0684546
0.105955
0.112101
0.107191
0.128056
0.131312
0.12518
0.147334
0.159905
0.167393
0.179484
0.179145
0.169444
0.162027
0.142286
0.12646
0.0949396
0.1185
0.13069
0.11281
0.131617
0.138703
0.131594
0.122235
0.0782685
0.126903
0.149582
0.156229
0.168085
0.160563
0.163348
0.167345
0.153032
0.159568
0.155213
0.155901
0.164099
0.155473
0.149636
0.13136
0.105853
0.108088
0.0831455
0.129564
0.142117
0.154713
0.147385
0.141308
0.126575
0.0944432
0.111949
0.121087
0.126488
0.138291
0.135651
0.141561
0.138535
0.142726
0.138263
0.124831
0.0697645
0.0620706
0.0990002
0.101009
0.0969403
0.0729568
0.108484
0.126195
0.127146
0.141601
0.14542
0.138602
0.129142
0.0671114
0.120556
0.133836
0.130057
0.123028
0.10514
0.0844684
0.103983
0.108764
-6.91868
-6.91743
-6.91429
-6.91044
-6.90539
-6.899
-6.89299
-6.88563
-6.87654
-6.8668
-6.85708
-6.84847
-6.83926
-6.82751
-6.81444
-6.8023
-6.79212
-6.78123
-6.77011
-6.76021
-6.7507
-6.74192
-6.73396
-6.7271
-6.72264
-6.72024
-6.7184
-6.71708
-6.71588
-6.71492
-6.71575
-6.72046
-6.7275
-6.73587
-6.74342
-6.74821
-6.75461
-6.76662
-6.78186
-6.79592
-6.80839
-6.82281
-6.84114
-6.86223
-6.88192
-6.90242
-6.92948
-6.96807
-7.01445
-7.05906
-7.0958
-7.12569
-7.15668
-7.19281
-7.23063
-7.26916
-7.309
-7.35475
-7.40559
-7.45342
-7.49877
-7.54832
-7.59906
-7.65189
-7.71085
-7.77729
-7.84178
-7.90622
-7.96366
-8.02437
-8.08009
-8.14203
-8.15985
-8.19705
-8.21363
-8.26077
-8.37188
-8.47127
-8.5226
-8.54206
-8.51445
-8.5365
-8.63855
-8.7179
-8.73055
-8.6799
-8.71472
-8.70215
-8.73098
-8.70551
-8.68821
-8.62634
-8.51323
-8.38749
-8.26206
-8.11263
-7.90715
-7.67686
-7.4097
-7.05636
-6.66813
-6.24512
-5.73016
-5.11833
-4.5476
-3.8358
-3.09178
-2.44647
-1.89522
-1.37424
-0.962392
-0.621732
-0.350074
-0.142785
0.0127675
0.113787
0.177182
0.206772
0.217066
0.224297
0.213828
0.142601
0.170814
0.118628
0.106744
0.169199
0.169938
0.183695
0.153148
0.199859
0.218803
0.21003
0.198575
0.178247
0.213636
0.2208
0.226063
0.209265
0.179433
0.115555
0.132707
0.0814066
0.11704
0.0896228
0.144498
0.176068
0.182435
0.181599
0.136181
0.150741
0.117042
0.145974
0.106171
0.16498
0.189001
0.188359
0.161076
0.187611
0.190216
0.20891
0.205608
0.193394
0.209446
0.190455
0.130076
0.160115
0.141914
0.124984
0.192412
0.216578
0.222958
0.225064
0.225411
0.210308
0.164632
0.120472
0.180297
0.175084
0.129547
0.143303
0.143268
0.115526
0.168977
0.179179
0.15577
0.197366
0.19156
0.184675
0.13739
0.152246
0.129644
0.180967
0.194063
0.143866
0.192069
0.174587
0.202025
0.173308
0.210045
0.221631
0.227867
0.209537
0.161405
0.186316
0.196737
0.203818
0.20763
0.210397
0.193335
0.140435
0.181548
0.172576
0.112632
0.156339
0.180885
0.183217
0.147619
0.158974
0.100637
0.155784
0.162157
0.141924
0.108796
0.17616
0.181701
0.135265
0.168457
0.154708
0.154472
0.18795
0.186301
0.141994
0.179485
0.18309
0.188849
0.202465
0.195784
0.163349
0.181449
0.16133
0.18407
0.173448
0.130317
0.18192
0.197613
0.192243
0.181138
0.163186
0.106929
0.139319
0.133684
0.172893
0.176856
0.203282
0.218974
0.215449
0.217274
0.202856
0.176653
0.19684
0.188518
0.1292
0.147485
0.0926217
0.134906
0.137303
0.160629
0.155255
0.154167
0.0933588
0.13303
0.173305
0.187675
0.194144
0.163759
0.203734
0.220919
0.21762
0.199259
0.222312
0.223117
0.208529
0.220957
0.212497
0.162578
0.179512
0.188863
0.182315
0.143243
0.156658
0.146576
0.125027
0.0799147
0.129984
0.0945242
0.15313
0.159043
0.111973
0.144453
0.140278
0.0885726
0.107265
0.139306
0.14301
0.125053
0.083243
0.137585
0.120135
0.149594
0.122342
0.155421
0.118018
0.178978
0.195118
0.208587
0.207461
0.209042
0.199537
0.185311
0.14385
0.179171
0.185736
0.172192
0.130921
0.186832
0.204061
0.202206
0.192075
0.162686
0.161356
0.127411
0.175095
0.193368
0.19849
0.179279
0.133963
0.183021
0.186598
0.175371
0.181985
0.181092
0.182724
0.183433
0.206266
0.225291
0.236176
0.23448
0.222463
0.195408
0.18374
0.127665
0.0875809
0.133626
0.202147
0.228961
0.241415
0.248483
0.243627
0.235499
0.219406
0.23372
0.216192
0.168644
0.206895
0.212877
0.229597
0.232003
0.224576
0.224996
0.212321
0.161914
0.167247
0.12508
0.108959
0.155284
0.161196
0.18811
0.20283
0.179108
0.229975
0.253449
0.260688
0.268567
0.268715
0.249438
0.220414
0.223632
0.189887
0.220785
0.238609
0.238059
0.222546
0.21593
0.208384
0.172199
0.195152
0.159099
0.190604
0.183993
0.167297
0.152871
0.108827
0.166407
0.216719
0.237762
0.226334
0.203081
0.136331
0.152213
0.0899675
0.12105
0.100049
0.14504
0.141533
0.087222
0.147592
0.165281
0.113583
0.125429
0.20133
0.225108
0.227849
0.209292
0.170851
0.179294
0.144004
0.183093
0.187677
0.190783
0.173599
0.111318
0.159736
0.158606
0.116325
0.15197
0.164914
0.128401
0.168422
0.20163
0.216036
0.217203
0.218351
0.21126
0.173075
0.162266
0.156584
0.102871
0.165263
0.163577
0.116287
0.168518
0.16301
0.161548
0.123677
0.0914806
0.156812
0.167754
0.194999
0.210075
0.218237
0.204195
0.195805
0.197268
0.154719
0.187306
0.203564
0.2028
0.203912
0.201341
0.179785
0.110798
0.154309
0.121466
0.179042
0.194596
0.202597
0.204244
0.193935
0.165266
0.135882
0.163942
0.170677
0.128064
0.164039
0.17034
0.141094
0.186639
0.192694
0.198051
0.173866
0.1031
0.107158
0.160126
0.128424
0.151636
0.110435
0.160002
0.17034
0.171537
0.149227
0.166024
0.176255
0.157227
0.103798
0.174091
0.188317
0.1765
0.154743
0.142421
0.0888412
0.148292
0.173843
-6.38859
-6.38712
-6.38354
-6.3786
-6.37221
-6.3637
-6.35562
-6.34596
-6.33407
-6.32175
-6.30858
-6.29609
-6.28285
-6.2675
-6.24996
-6.23546
-6.22138
-6.20579
-6.19198
-6.17917
-6.1669
-6.15563
-6.14563
-6.13665
-6.13007
-6.12629
-6.12371
-6.12094
-6.11927
-6.11939
-6.12245
-6.12695
-6.13373
-6.14188
-6.15009
-6.15945
-6.16698
-6.1823
-6.19808
-6.21425
-6.23057
-6.24519
-6.27122
-6.29836
-6.32096
-6.33609
-6.36797
-6.42123
-6.47713
-6.5282
-6.56963
-6.60301
-6.64126
-6.69193
-6.74679
-6.7993
-6.84404
-6.88654
-6.94844
-7.02672
-7.10052
-7.1557
-7.19194
-7.24515
-7.33729
-7.42285
-7.50309
-7.59868
-7.69338
-7.76996
-7.82795
-7.88049
-7.90939
-7.95818
-7.98723
-8.0698
-8.19463
-8.28967
-8.31257
-8.34149
-8.37649
-8.46411
-8.57158
-8.64167
-8.63634
-8.64895
-8.67701
-8.72096
-8.7161
-8.71636
-8.6985
-8.63802
-8.56658
-8.44665
-8.28392
-8.11241
-7.89444
-7.60687
-7.31949
-6.97446
-6.52978
-6.06947
-5.56683
-4.9382
-4.30154
-3.58685
-2.84168
-2.19375
-1.63092
-1.17024
-0.761783
-0.437732
-0.194416
-0.0112909
0.104148
0.181788
0.220488
0.237916
0.212457
0.249042
0.242576
0.258542
0.246575
0.235528
0.222087
0.196791
0.147413
0.191477
0.172018
0.213022
0.197395
0.210361
0.175982
0.21125
0.222925
0.237235
0.227024
0.191121
0.218375
0.216316
0.186894
0.175621
0.125548
0.101924
0.15013
0.144914
0.187054
0.185619
0.140489
0.167041
0.131653
0.18613
0.203054
0.201568
0.197773
0.169507
0.14147
0.182295
0.157054
0.197147
0.204192
0.168149
0.203113
0.209256
0.15765
0.172554
0.136979
0.193192
0.195483
0.213745
0.22017
0.211261
0.208859
0.202952
0.16732
0.212563
0.207832
0.193398
0.146475
0.15872
0.136831
0.122252
0.169288
0.148317
0.106441
0.173065
0.203379
0.179172
0.127966
0.164913
0.167867
0.209916
0.228142
0.24387
0.22135
0.170126
0.174487
0.145093
0.212368
0.223642
0.200754
0.219951
0.208966
0.205336
0.168673
0.149021
0.174718
0.187686
0.208972
0.206168
0.184198
0.208563
0.205247
0.158327
0.172888
0.171028
0.109052
0.143841
0.191018
0.198942
0.193912
0.163354
0.205938
0.210972
0.225851
0.210924
0.184713
0.119543
0.107113
0.187121
0.214392
0.209157
0.196562
0.136187
0.154925
0.19204
0.208796
0.208811
0.199234
0.147663
0.200107
0.203598
0.202788
0.171063
0.193833
0.197828
0.146921
0.186958
0.17224
0.119539
0.104473
0.169337
0.134433
0.194422
0.185186
0.217762
0.2043
0.15423
0.132425
0.191577
0.179658
0.121444
0.171486
0.177085
0.139545
0.121606
0.164665
0.134687
0.17465
0.172009
0.109596
0.136952
0.194398
0.198192
0.165782
0.200801
0.198991
0.219404
0.185582
0.228571
0.21885
0.169682
0.219087
0.199089
0.123723
0.121352
0.158415
0.151062
0.103022
0.136179
0.0985096
0.0969581
0.171552
0.190105
0.212506
0.214214
0.204914
0.187435
0.172546
0.129956
0.107125
0.0920671
0.147735
0.125576
0.12823
0.186285
0.172729
0.142677
0.190324
0.168311
0.198278
0.207332
0.187625
0.216559
0.220371
0.206364
0.175234
0.183807
0.153115
0.0954632
0.142453
0.165265
0.193315
0.206545
0.204371
0.200238
0.21113
0.194945
0.150517
0.190465
0.19987
0.212255
0.215125
0.194338
0.217431
0.215254
0.191952
0.202136
0.178016
0.193651
0.139817
0.183023
0.15334
0.1699
0.191248
0.219378
0.229165
0.212855
0.162047
0.172732
0.101427
0.113192
0.112514
0.188487
0.211264
0.232825
0.230793
0.233256
0.22495
0.159938
0.213988
0.221062
0.177128
0.190249
0.162735
0.19796
0.195896
0.208265
0.174908
0.18127
0.123973
0.139828
0.0989177
0.0882977
0.104151
0.114896
0.179456
0.174182
0.224269
0.246679
0.253597
0.26749
0.260067
0.222724
0.231025
0.178858
0.216761
0.191752
0.216835
0.197596
0.21501
0.213567
0.16193
0.168195
0.127665
0.172136
0.121971
0.150986
0.161408
0.136438
0.15363
0.210106
0.194529
0.237432
0.24392
0.22298
0.166675
0.102872
0.15763
0.16881
0.129621
0.118898
0.162946
0.15207
0.11548
0.167284
0.171568
0.107649
0.116835
0.198294
0.213542
0.187829
0.178758
0.116068
0.141674
0.0867964
0.124108
0.133915
0.185215
0.196604
0.207789
0.186172
0.165691
0.131336
0.165117
0.162315
0.172922
0.130871
0.173713
0.168366
0.197659
0.224207
0.223696
0.163609
0.182381
0.184694
0.147969
0.15722
0.183577
0.151506
0.178734
0.141664
0.166433
0.114817
0.175787
0.184789
0.141319
0.155314
0.19175
0.163138
0.144949
0.18162
0.140312
0.104405
0.139904
0.146779
0.180786
0.161051
0.188027
0.160665
0.136634
0.181752
0.202533
0.203785
0.162663
0.192916
0.190528
0.185615
0.18045
0.157929
0.169555
0.169897
0.12531
0.171684
0.14593
0.104605
0.161928
0.194058
0.217247
0.232773
0.246184
0.237262
0.216802
0.171088
0.184821
0.18762
0.168131
0.16843
0.129274
0.0877205
0.149273
0.161305
0.187736
0.222804
0.210016
0.204797
0.191774
0.14516
0.146449
0.0998954
0.150851
0.149669
-5.78509
-5.783
-5.77909
-5.77357
-5.76587
-5.75717
-5.74682
-5.73508
-5.72237
-5.70798
-5.69313
-5.67841
-5.66247
-5.64336
-5.62126
-5.59815
-5.58767
-5.56725
-5.54162
-5.52555
-5.51383
-5.49997
-5.48308
-5.46797
-5.45784
-5.4511
-5.44592
-5.44356
-5.4395
-5.43321
-5.4277
-5.43296
-5.4449
-5.46097
-5.47223
-5.47057
-5.46993
-5.48842
-5.5144
-5.53641
-5.55085
-5.56706
-5.59998
-5.64233
-5.66925
-5.69008
-5.72851
-5.79058
-5.86454
-5.92485
-5.96792
-6.00752
-6.05558