/*--------------------------------*- C++ -*----------------------------------*\
| =========                 |                                                 |
| \\      /  F ield         | OpenFOAM: The Open Source CFD Toolbox           |
|  \\    /   O peration     | Version:  v2012                                 |
|   \\  /    A nd           | Website:  www.openfoam.com                      |
|    \\/     M anipulation  |                                                 |
\*---------------------------------------------------------------------------*/
FoamFile
{
    version     2.0;
    format      ascii;
    class       volVectorField;
    location    "350";
    object      U_filtered;
}
// * * * * * * * * * * * * * * * * * * * * * * * * * * * * * * * * * * * * * //

dimensions      [0 1 -1 0 0 0 0];


internalField   nonuniform List<vector> 
65536
(
(0.226588 -0.22241 0)
(0.657714 -0.242856 0)
(1.14113 -0.260463 0)
(1.63567 -0.235715 0)
(2.05869 -0.227981 0)
(2.55483 -0.247593 0)
(3.04161 -0.239913 0)
(3.49368 -0.23214 0)
(3.95151 -0.228046 0)
(4.39901 -0.229575 0)
(4.88839 -0.249688 0)
(5.41707 -0.254605 0)
(5.9051 -0.237098 0)
(6.35767 -0.222501 0)
(6.79612 -0.231115 0)
(7.28522 -0.251349 0)
(7.80413 -0.262366 0)
(8.3289 -0.282768 0)
(8.89493 -0.278312 0)
(9.4069 -0.24981 0)
(9.92438 -0.252585 0)
(10.4723 -0.269705 0)
(11.0339 -0.283608 0)
(11.6041 -0.299903 0)
(12.1995 -0.285201 0)
(12.7271 -0.259565 0)
(13.2591 -0.271847 0)
(13.8046 -0.274427 0)
(14.3196 -0.263134 0)
(14.8528 -0.285325 0)
(15.4648 -0.285678 0)
(16.0117 -0.231019 0)
(16.4823 -0.230811 0)
(17.0219 -0.289502 0)
(17.5762 -0.297123 0)
(18.0654 -0.258802 0)
(18.5493 -0.22827 0)
(19.0479 -0.217276 0)
(19.5413 -0.23615 0)
(20.0564 -0.266794 0)
(20.5725 -0.260486 0)
(21.0528 -0.243388 0)
(21.5637 -0.282868 0)
(22.1614 -0.30725 0)
(22.6857 -0.243175 0)
(23.1125 -0.198266 0)
(23.6003 -0.267161 0)
(24.2188 -0.320133 0)
(24.7473 -0.206244 0)
(25.012 -0.0378776 0)
(25.1706 -0.0584856 0)
(25.5413 -0.291288 0)
(26.1743 -0.411488 0)
(26.6416 -0.202244 0)
(26.7341 0.0728854 0)
(26.7757 0.0059479 0)
(27.2396 -0.370759 0)
(28.0738 -0.502182 0)
(28.5307 -0.135905 0)
(28.3953 0.218293 0)
(28.3196 0.0385558 0)
(28.8618 -0.412433 0)
(29.6322 -0.488519 0)
(29.8918 -0.122178 0)
(29.7471 0.147943 0)
(29.8648 0.00528827 0)
(30.4469 -0.345609 0)
(31.177 -0.490612 0)
(31.6015 -0.11481 0)
(31.2683 0.49603 0)
(30.4348 0.498673 0)
(30.2161 -0.240909 0)
(30.9511 -0.729202 0)
(31.6997 -0.319693 0)
(31.7576 0.279367 0)
(31.6532 0.119748 0)
(32.1744 -0.513393 0)
(33.032 -0.51554 0)
(33.045 0.279724 0)
(32.0756 0.662579 0)
(31.6418 -0.0744036 0)
(32.6093 -0.885161 0)
(33.7272 -0.519695 0)
(33.5034 0.431461 0)
(32.7405 0.511879 0)
(32.8081 -0.205173 0)
(33.3827 -0.556709 0)
(33.5783 -0.19229 0)
(33.3861 0.22593 0)
(33.3667 0.176107 0)
(33.5817 -0.115288 0)
(33.6661 -0.225111 0)
(33.5157 -0.0548309 0)
(33.2924 0.159811 0)
(33.0952 0.204082 0)
(32.8823 0.186026 0)
(32.4407 0.256008 0)
(31.7898 0.330851 0)
(31.1017 0.317557 0)
(30.486 0.279327 0)
(29.8999 0.29893 0)
(29.2674 0.327356 0)
(28.6177 0.323446 0)
(27.9609 0.314309 0)
(27.3011 0.357479 0)
(26.4966 0.452769 0)
(25.5262 0.553519 0)
(24.3817 0.659765 0)
(23.0392 0.732341 0)
(21.6239 0.757325 0)
(20.1596 0.751085 0)
(18.7383 0.697627 0)
(17.4464 0.629625 0)
(16.2727 0.560553 0)
(15.2435 0.493247 0)
(14.3248 0.436977 0)
(13.5146 0.387089 0)
(12.79 0.348851 0)
(12.1228 0.3344 0)
(11.4692 0.30396 0)
(10.9229 0.259173 0)
(10.421 0.255157 0)
(9.91364 0.244038 0)
(9.46629 0.21068 0)
(9.06928 0.19469 0)
(8.69295 0.176532 0)
(8.36319 0.162618 0)
(8.03644 0.153693 0)
(7.74006 0.150371 0)
(7.43957 0.14612 0)
(7.16352 0.126402 0)
(6.92381 0.115605 0)
(6.68667 0.119993 0)
(6.4463 0.130347 0)
(6.19273 0.116207 0)
(5.99619 0.0951573 0)
(5.79495 0.0975867 0)
(5.59958 0.109402 0)
(5.37286 0.11099 0)
(5.16986 0.0989573 0)
(4.97921 0.0975171 0)
(4.79031 0.0912456 0)
(4.61935 0.0863055 0)
(4.44647 0.0865377 0)
(4.2819 0.0799947 0)
(4.13151 0.0711007 0)
(3.9996 0.0619342 0)
(3.8685 0.0609933 0)
(3.74997 0.0606228 0)
(3.6318 0.0592259 0)
(3.52133 0.0514881 0)
(3.42483 0.0421709 0)
(3.34389 0.0389022 0)
(3.26449 0.0321798 0)
(3.18966 0.0312965 0)
(3.11314 0.0424322 0)
(3.01579 0.0560699 0)
(2.91395 0.0557435 0)
(2.81783 0.0422393 0)
(2.75087 0.0385345 0)
(2.66375 0.0362532 0)
(2.60019 0.0256785 0)
(2.54689 0.022277 0)
(2.49658 0.0281403 0)
(2.43874 0.0253933 0)
(2.37949 0.0230309 0)
(2.32645 0.037201 0)
(2.23381 0.0449938 0)
(2.14771 0.0515959 0)
(2.03842 0.0497096 0)
(1.96316 0.0279291 0)
(1.9205 0.0207217 0)
(1.86929 0.025044 0)
(1.81821 0.0291159 0)
(1.74986 0.0330793 0)
(1.68325 0.0287352 0)
(1.63817 0.0256712 0)
(1.59382 0.0249814 0)
(1.55837 0.0150411 0)
(1.51594 0.00419987 0)
(1.49541 0.00712886 0)
(1.46925 0.0204448 0)
(1.43692 0.0161227 0)
(1.41958 0.00928639 0)
(1.3786 0.0150681 0)
(1.33728 0.0157093 0)
(1.3061 0.0109398 0)
(1.27603 0.0147555 0)
(1.24501 0.0209607 0)
(1.2025 0.0297212 0)
(1.15533 0.0331164 0)
(1.10434 0.0257467 0)
(1.05854 0.0197512 0)
(1.02222 0.0120619 0)
(0.999485 0.00750549 0)
(0.967171 0.00689262 0)
(0.959996 0.00220589 0)
(0.951901 -0.00462836 0)
(0.946127 0.00507705 0)
(0.922982 0.0215746 0)
(0.889989 0.0265733 0)
(0.845502 0.0173586 0)
(0.82869 0.006964 0)
(0.815469 0.00248989 0)
(0.802413 -0.00426689 0)
(0.796633 0.0110685 0)
(0.752114 0.0303565 0)
(0.711183 0.0296628 0)
(0.664559 0.0124183 0)
(0.65641 -0.00120618 0)
(0.642666 0.000984086 0)
(0.636224 0.000938291 0)
(0.632821 0.000780625 0)
(0.641522 0.00660318 0)
(0.62966 0.0159638 0)
(0.61025 0.00790517 0)
(0.616217 0.00254443 0)
(0.593277 2.55981e-05 0)
(0.581148 0.0090326 0)
(0.531192 0.0266454 0)
(0.480636 0.0180542 0)
(0.46821 0.00482821 0)
(0.464109 -0.00447861 0)
(0.473374 -0.00603324 0)
(0.475711 -0.00794869 0)
(0.479578 -0.0104192 0)
(0.489822 -0.0010375 0)
(0.505026 0.00384013 0)
(0.506833 0.003094 0)
(0.49852 0.00484041 0)
(0.469813 0.00654601 0)
(0.460995 -0.00692563 0)
(0.480009 -0.00574156 0)
(0.461254 0.0194995 0)
(0.425664 0.0255939 0)
(0.394616 0.0158333 0)
(0.367927 0.0114957 0)
(0.34282 0.000784315 0)
(0.353368 -0.00870665 0)
(0.358131 -0.00805744 0)
(0.355702 -0.00877574 0)
(0.375085 -0.00250502 0)
(0.373886 0.00273968 0)
(0.360108 0.00149581 0)
(0.348571 0.00353337 0)
(0.330582 0.0118053 0)
(0.323253 0.0158944 0)
(0.324097 0.00838675 0)
(0.309289 -0.00211672 0)
(0.308201 -0.00312752 0)
(0.294211 0.0116734 0)
(0.270179 0.0185771 0)
(0.25725 0.0107186 0)
(0.239788 -0.00195107 0)
(0.23762 -0.0121439 0)
(0.264133 0.00119292 0)
(0.247391 0.0152651 0)
(0.230012 0.00607291 0)
(0.234235 0.00541273 0)
(0.209009 0.00176399 0)
(0.208241 -0.00611962 0)
(0.222584 0.00917507 0)
(0.1946 0.0129769 0)
(0.182201 0.00283378 0)
(0.161 0.00770106 0)
(0.143703 0.0129167 0)
(0.12416 0.00698622 0)
(0.110704 -0.00531653 0)
(0.126368 -0.00886257 0)
(0.151033 -0.000211676 0)
(0.151902 -0.000763967 0)
(0.15841 -0.0128538 0)
(0.169233 -0.00270482 0)
(0.158766 0.00967335 0)
(0.150027 0.00502398 0)
(0.136001 0.00321687 0)
(0.140918 0.000726998 0)
(0.140665 -0.00779196 0)
(0.149253 -0.00865551 0)
(0.15061 0.000285851 0)
(0.163682 0.00625284 0)
(0.157079 0.00643799 0)
(0.139715 0.0151956 0)
(0.0963837 0.0230844 0)
(0.0695434 0.00789105 0)
(0.0645527 -0.00878301 0)
(0.0736079 -0.0158824 0)
(0.0919101 -0.00240089 0)
(0.100018 0.00630151 0)
(0.110133 0.00249091 0)
(0.0908956 0.00577939 0)
(0.0870673 0.00552879 0)
(0.084254 -0.00362549 0)
(0.0872554 -0.00434348 0)
(0.0756453 0.00531042 0)
(0.071385 0.00988607 0)
(0.0465441 0.0077704 0)
(0.03335 0.00722199 0)
(0.015043 0.00205044 0)
(0.0125769 -0.00198043 0)
(0.00737818 0.00624877 0)
(-0.000442247 0.0055242 0)
(-0.00847442 -0.00393757 0)
(0.00893002 -0.00428875 0)
(0.0211418 -0.0159276 0)
(0.0777644 -0.0279187 0)
(0.108323 -0.00875314 0)
(0.103343 0.00481575 0)
(0.0964935 0.006885 0)
(0.074199 0.0110798 0)
(0.0542801 0.006502 0)
(0.0461664 -0.00698602 0)
(0.0707014 -0.00280243 0)
(0.0419515 0.00673611 0)
(0.0494698 0.0059277 0)
(0.0409942 -0.00339053 0)
(0.0518881 -0.00188117 0)
(0.024714 0.00449825 0)
(0.0321526 0.00597822 0)
(0.0331983 0.0139389 0)
(0.00921557 0.0107458 0)
(-0.00545263 0.00220618 0)
(-0.020303 -0.000454625 0)
(-0.0276264 0.00114456 0)
(-0.012351 -0.00679246 0)
(0.00341788 -0.0119828 0)
(0.0097448 -0.0142025 0)
(0.0348032 -0.0203044 0)
(0.0638519 -0.0233764 0)
(0.113485 -0.0238263 0)
(0.169708 -0.0108643 0)
(0.184681 0.00612781 0)
(0.168325 0.00429319 0)
(0.163138 0.00539693 0)
(0.130102 0.0129115 0)
(0.10827 0.00910728 0)
(0.0829208 0.0144995 0)
(0.06112 0.0147939 0)
(0.050472 0.00681375 0)
(0.034085 0.00543716 0)
(0.0374952 -9.65983e-05 0)
(0.0355423 -0.0101252 0)
(0.0445968 -0.0092654 0)
(0.0465144 -0.00390991 0)
(0.0540654 0.00239143 0)
(0.0687201 0.00797519 0)
(0.0716647 0.00191697 0)
(0.0609565 -0.00513367 0)
(0.0620702 -0.00774353 0)
(0.0751533 -0.0112837 0)
(0.0907135 -0.00887756 0)
(0.0901285 0.00301159 0)
(0.0835153 0.0100092 0)
(0.0649203 0.00301892 0)
(0.0624559 -0.00423114 0)
(0.0692679 -0.00411714 0)
(0.0624557 -0.0110225 0)
(0.0829 -0.00973912 0)
(0.095392 0.00185812 0)
(0.0960249 0.00648514 0)
(0.0980326 0.00562103 0)
(0.0907447 0.00393557 0)
(0.078084 0.00579535 0)
(0.0704147 0.00350408 0)
(0.0666401 -0.00162936 0)
(0.0677703 0.00588496 0)
(0.0530801 0.0084812 0)
(0.0464153 0.00212671 0)
(0.0334073 -0.00285859 0)
(0.0308364 -0.00418888 0)
(0.0257977 0.000825945 0)
(0.0209185 0.00280411 0)
(0.0413127 0.00355967 0)
(0.0320426 -0.0020844 0)
(0.0433384 -0.00598364 0)
(0.0451435 -0.00496631 0)
(0.0565889 -0.00512657 0)
(0.0584754 -0.00706653 0)
(0.0688636 -0.0125357 0)
(0.0915067 0.0016762 0)
(0.0631362 0.018508 0)
(0.0394337 0.013672 0)
(0.0363651 0.00808137 0)
(0.0223957 0.00437906 0)
(0.0168722 -0.00565402 0)
(0.0194373 -0.00855388 0)
(0.0182719 -0.0025895 0)
(0.0240169 0.00839289 0)
(0.0042433 0.00560724 0)
(0.0115606 -0.00972457 0)
(0.0245648 -0.00783755 0)
(0.0242748 0.00420102 0)
(0.0352829 0.0104924 0)
(0.0140971 0.00739019 0)
(0.00100039 0.00577966 0)
(-0.0123513 0.00698432 0)
(-0.0352204 0.00601634 0)
(-0.0469872 0.00864449 0)
(-0.059094 0.00494383 0)
(-0.0502462 -0.00344489 0)
(-0.0483807 -0.00661174 0)
(-0.0435268 -0.00488063 0)
(-0.0384201 -0.0106214 0)
(-0.00274821 -0.0227992 0)
(0.0311905 -0.0159406 0)
(0.0307166 0.00311598 0)
(0.00865856 0.00556184 0)
(0.0146586 -2.15986e-05 0)
(0.0229792 -0.00601915 0)
(0.0616894 -0.0114402 0)
(0.0932277 -0.00394719 0)
(0.0916337 0.000731367 0)
(0.0897596 -0.000598459 0)
(0.0734342 0.00282443 0)
(0.0585383 0.0139506 0)
(0.0228147 0.0153684 0)
(0.0234119 -0.00187832 0)
(0.037451 -0.0116814 0)
(0.0501463 -0.0091412 0)
(0.0611582 0.00213582 0)
(0.0479596 0.00926968 0)
(0.0445797 0.0019868 0)
(0.0390776 -0.00394651 0)
(0.0435979 0.00247787 0)
(0.0221404 0.00758164 0)
(0.00107373 0.0104596 0)
(-0.0287987 0.0203034 0)
(-0.0629088 0.0232357 0)
(-0.0834359 0.0122346 0)
(-0.0932937 0.00378197 0)
(-0.103333 0.00789226 0)
(-0.111001 0.00320523 0)
(-0.112054 -0.0072925 0)
(-0.0982174 -0.00312111 0)
(-0.11826 -0.00330605 0)
(-0.091303 -0.0157561 0)
(-0.0674591 -0.0126144 0)
(-0.0587607 -0.00701845 0)
(-0.0240446 -0.00729381 0)
(-0.0142603 -0.00990437 0)
(0.00999148 -0.00687958 0)
(0.000818625 -0.0110805 0)
(0.0301678 -0.0163009 0)
(0.0400737 -0.00969116 0)
(0.0574516 -0.0090677 0)
(0.0772069 -0.011982 0)
(0.100505 -0.012335 0)
(0.110751 -0.00438177 0)
(0.12019 0.00567078 0)
(0.104238 0.0036023 0)
(0.107448 -0.00609434 0)
(0.109914 -0.00701221 0)
(0.109703 -0.00271568 0)
(0.107868 0.0112565 0)
(0.0810183 0.0169255 0)
(0.067276 0.0121904 0)
(0.0439919 0.0179441 0)
(0.0190509 0.0208342 0)
(-0.0163633 0.00473808 0)
(-0.014432 -0.00668619 0)
(-0.00554835 -0.00146553 0)
(-0.0124036 0.00560354 0)
(-0.0321866 0.0132112 0)
(-0.0398077 0.00712736 0)
(-0.0409081 0.00149471 0)
(-0.0565637 0.00230517 0)
(-0.0466259 -0.00916177 0)
(-0.031175 -0.0128606 0)
(-0.0161293 -0.0130966 0)
(0.00764878 -0.0177422 0)
(0.0351204 -0.00727312 0)
(0.0443387 0.00518295 0)
(0.0324275 0.00259179 0)
(0.0227622 0.013308 0)
(-0.00266393 0.016702 0)
(-0.0245182 0.00996561 0)
(-0.0539655 0.00642044 0)
(-0.0628633 -8.71997e-05 0)
(-0.0795649 -0.00452915 0)
(-0.0634799 -0.0118901 0)
(-0.031855 -0.0015147 0)
(-0.0414544 0.00160633 0)
(0.00594719 -0.00966069 0)
(0.0330022 -0.00786726 0)
(0.032562 -0.0091809 0)
(0.042025 -0.00663367 0)
(0.0213564 0.00305252 0)
(0.00859376 0.0012799 0)
(0.00245676 -0.000692364 0)
(-0.00466064 0.00831288 0)
(-0.0343862 0.000302344 0)
(0.00145645 -0.0112272 0)
(0.0263683 0.00646664 0)
(0.00635406 0.0169944 0)
(-0.0191657 0.0125506 0)
(-0.0344871 0.00557643 0)
(-0.040481 -0.00588091 0)
(-0.0199218 -0.016835 0)
(-0.00247218 -0.0129596 0)
(-0.00133689 -0.00590615 0)
(0.00897373 -0.00182192 0)
(0.00737046 0.0091135 0)
(0.00983045 0.0173428 0)
(-0.0173892 0.0141042 0)
(-0.0321001 0.00448587 0)
(-0.0412313 0.00422367 0)
(-0.0672173 0.000965674 0)
(-0.0469158 -0.0121646 0)
(-0.0296115 -0.0117869 0)
(-0.0279804 -0.00500854 0)
(-0.0269947 2.64734e-05 0)
(-0.0269887 -0.00808525 0)
(0.224172 -0.659058 0)
(0.650922 -0.671838 0)
(1.07379 -0.717831 0)
(1.53252 -0.682132 0)
(1.97938 -0.691096 0)
(2.47392 -0.735511 0)
(2.94705 -0.698828 0)
(3.38192 -0.677637 0)
(3.84488 -0.676592 0)
(4.32264 -0.706531 0)
(4.83141 -0.7672 0)
(5.34792 -0.760857 0)
(5.80907 -0.701721 0)
(6.25787 -0.66633 0)
(6.7366 -0.693564 0)
(7.25139 -0.753589 0)
(7.7666 -0.777705 0)
(8.25591 -0.804259 0)
(8.76669 -0.79518 0)
(9.26486 -0.774406 0)
(9.8055 -0.806985 0)
(10.3687 -0.833676 0)
(10.9355 -0.841626 0)
(11.4623 -0.858753 0)
(11.9916 -0.830266 0)
(12.5118 -0.791927 0)
(13.0524 -0.797354 0)
(13.5853 -0.777318 0)
(14.1428 -0.776195 0)
(14.6963 -0.851216 0)
(15.2632 -0.86465 0)
(15.8024 -0.777226 0)
(16.3366 -0.770438 0)
(16.8505 -0.795676 0)
(17.3285 -0.737617 0)
(17.8101 -0.70524 0)
(18.3459 -0.745241 0)
(18.9144 -0.76545 0)
(19.4357 -0.763204 0)
(19.9103 -0.755259 0)
(20.3576 -0.726584 0)
(20.8529 -0.738208 0)
(21.3789 -0.817014 0)
(21.8626 -0.805885 0)
(22.2922 -0.698625 0)
(22.8022 -0.706984 0)
(23.364 -0.83117 0)
(23.8612 -0.819369 0)
(24.282 -0.578301 0)
(24.6895 -0.376098 0)
(25.0969 -0.461566 0)
(25.4581 -0.706143 0)
(25.7342 -0.682599 0)
(25.996 -0.34998 0)
(26.404 -0.198163 0)
(26.9252 -0.50289 0)
(27.3437 -0.92385 0)
(27.5393 -0.784294 0)
(27.6441 -0.180372 0)
(28.0211 -0.000479942 0)
(28.6746 -0.500285 0)
(29.1666 -0.898179 0)
(29.1763 -0.542413 0)
(29.0156 0.0104953 0)
(29.3011 -0.116118 0)
(30.0276 -0.700328 0)
(30.5316 -0.96422 0)
(30.4999 -0.66158 0)
(30.3298 0.0285178 0)
(30.4245 0.674617 0)
(30.7204 0.557213 0)
(30.894 -0.274941 0)
(30.7447 -0.757702 0)
(30.7035 -0.48349 0)
(31.2011 -0.238489 0)
(31.9268 -0.538601 0)
(32.3204 -0.869305 0)
(32.2874 -0.35646 0)
(31.9691 0.668807 0)
(31.6446 0.733649 0)
(31.7294 -0.478547 0)
(32.2223 -1.2315 0)
(32.6861 -0.389731 0)
(32.9128 0.55609 0)
(33.1383 0.177575 0)
(33.135 -0.459601 0)
(32.6534 -0.23116 0)
(32.3208 0.186203 0)
(32.739 -0.0193542 0)
(33.4966 -0.382912 0)
(33.6951 -0.199165 0)
(33.2865 0.284315 0)
(32.9816 0.425976 0)
(32.9722 0.260074 0)
(32.8811 0.208668 0)
(32.4972 0.473376 0)
(31.9042 0.844758 0)
(31.239 1.01857 0)
(30.558 0.996155 0)
(29.8987 0.933907 0)
(29.2691 0.932793 0)
(28.6205 0.965853 0)
(27.9284 0.997246 0)
(27.2148 1.0173 0)
(26.4677 1.12108 0)
(25.6046 1.33507 0)
(24.614 1.57282 0)
(23.4851 1.83833 0)
(22.2293 2.03323 0)
(20.9112 2.12887 0)
(19.5714 2.13664 0)
(18.2772 2.0138 0)
(17.088 1.83251 0)
(16.005 1.63817 0)
(15.0415 1.45182 0)
(14.1683 1.29053 0)
(13.396 1.14833 0)
(12.6873 1.04425 0)
(12.0297 0.988244 0)
(11.4224 0.898254 0)
(10.8726 0.791867 0)
(10.3514 0.757374 0)
(9.89203 0.714049 0)
(9.4438 0.637307 0)
(9.04448 0.58274 0)
(8.67477 0.532901 0)
(8.33379 0.496378 0)
(8.00333 0.471123 0)
(7.69619 0.448121 0)
(7.41398 0.431878 0)
(7.1315 0.390344 0)
(6.871 0.362456 0)
(6.6235 0.358853 0)
(6.40003 0.365037 0)
(6.18533 0.33534 0)
(5.97671 0.303661 0)
(5.7538 0.299949 0)
(5.56597 0.313887 0)
(5.35725 0.319906 0)
(5.16172 0.294742 0)
(4.97176 0.282744 0)
(4.79924 0.269189 0)
(4.62478 0.258119 0)
(4.46224 0.251648 0)
(4.30113 0.235422 0)
(4.15515 0.211584 0)
(4.01588 0.200975 0)
(3.86368 0.188737 0)
(3.75642 0.175632 0)
(3.64364 0.169347 0)
(3.54708 0.155186 0)
(3.43527 0.135173 0)
(3.35502 0.121239 0)
(3.26497 0.122515 0)
(3.15911 0.120064 0)
(3.06756 0.132345 0)
(2.97583 0.143622 0)
(2.90921 0.143034 0)
(2.82289 0.121116 0)
(2.76018 0.115338 0)
(2.66646 0.113367 0)
(2.59872 0.0899324 0)
(2.52748 0.0795542 0)
(2.47342 0.0788571 0)
(2.41889 0.0902601 0)
(2.32761 0.088209 0)
(2.28083 0.107321 0)
(2.19635 0.132798 0)
(2.1177 0.142461 0)
(2.03292 0.133508 0)
(1.9687 0.0880365 0)
(1.91563 0.0710425 0)
(1.86227 0.0746349 0)
(1.81597 0.0881337 0)
(1.74218 0.0990049 0)
(1.68292 0.0806476 0)
(1.64584 0.0609998 0)
(1.62407 0.0527619 0)
(1.60192 0.0602468 0)
(1.52938 0.0569133 0)
(1.47619 0.0370829 0)
(1.45458 0.0358314 0)
(1.44558 0.0313338 0)
(1.41996 0.0472558 0)
(1.36098 0.0653932 0)
(1.3204 0.0553093 0)
(1.27029 0.0486047 0)
(1.22706 0.044873 0)
(1.21204 0.0507281 0)
(1.18555 0.0586779 0)
(1.17942 0.0637649 0)
(1.1475 0.0702506 0)
(1.09673 0.0612903 0)
(1.06029 0.0459116 0)
(1.02013 0.0461232 0)
(0.965911 0.0310315 0)
(0.961472 0.0116827 0)
(0.933061 0.0171445 0)
(0.90384 0.0222766 0)
(0.898436 0.0335873 0)
(0.895922 0.0498301 0)
(0.864499 0.0428853 0)
(0.842571 0.0220954 0)
(0.833847 0.0231777 0)
(0.793072 0.0223162 0)
(0.760573 0.0388697 0)
(0.736092 0.0551482 0)
(0.728761 0.0574487 0)
(0.699106 0.0423551 0)
(0.666974 0.0226162 0)
(0.636017 0.0189614 0)
(0.629229 0.00827929 0)
(0.621466 -0.00642404 0)
(0.639179 -0.0043306 0)
(0.643844 0.0144746 0)
(0.642318 0.00455855 0)
(0.661731 0.0128035 0)
(0.633641 0.0332843 0)
(0.582006 0.0514719 0)
(0.532746 0.0724915 0)
(0.493017 0.0432515 0)
(0.484363 0.0102188 0)
(0.479445 -0.00173846 0)
(0.47702 -0.00721263 0)
(0.475022 0.000773713 0)
(0.445375 -0.00525272 0)
(0.454077 -0.0254214 0)
(0.502731 -0.0220391 0)
(0.523682 0.00274498 0)
(0.511768 0.0315267 0)
(0.468641 0.0307162 0)
(0.452513 -0.00407873 0)
(0.449081 0.00527483 0)
(0.427025 0.0348661 0)
(0.432613 0.0403514 0)
(0.425788 0.0415023 0)
(0.384859 0.0402307 0)
(0.360172 0.0135701 0)
(0.359839 -0.0069929 0)
(0.345595 0.00492393 0)
(0.317987 -0.00929848 0)
(0.339715 -0.0164476 0)
(0.348551 0.0110236 0)
(0.316967 0.0234356 0)
(0.289332 0.0253114 0)
(0.264314 0.0135271 0)
(0.301941 -0.00961561 0)
(0.343093 0.0056289 0)
(0.324329 0.0179428 0)
(0.295782 0.0187147 0)
(0.266715 0.0269718 0)
(0.274845 0.019565 0)
(0.289107 0.0209944 0)
(0.265927 0.0231255 0)
(0.234889 -0.010492 0)
(0.250622 -0.0093791 0)
(0.251615 0.0206954 0)
(0.245247 0.00914961 0)
(0.254438 0.0175357 0)
(0.222421 0.0262381 0)
(0.198278 -0.00551478 0)
(0.22024 0.00580952 0)
(0.218906 0.0291286 0)
(0.197282 0.0325315 0)
(0.15419 0.0322871 0)
(0.148635 0.0249898 0)
(0.136937 0.0272959 0)
(0.104571 0.00375153 0)
(0.113861 -0.0308711 0)
(0.14908 -0.0253523 0)
(0.164416 -0.00641781 0)
(0.150856 -0.00410885 0)
(0.13211 0.00274607 0)
(0.144649 0.0101547 0)
(0.147779 0.0183664 0)
(0.123444 0.00670605 0)
(0.143396 -0.00494094 0)
(0.135706 -5.56665e-05 0)
(0.118445 -0.00120048 0)
(0.113381 -0.0142205 0)
(0.15049 -0.0125991 0)
(0.158545 0.0181008 0)
(0.130466 0.0453479 0)
(0.103097 0.0470174 0)
(0.0965868 0.0224947 0)
(0.0774783 0.00400406 0)
(0.0592424 -0.0126222 0)
(0.0699321 -0.025108 0)
(0.113118 -0.0257646 0)
(0.141907 0.00482869 0)
(0.111625 0.015718 0)
(0.126083 -0.000541418 0)
(0.133356 0.00155938 0)
(0.110737 0.0112038 0)
(0.0877622 0.00941581 0)
(0.106168 0.0178207 0)
(0.0764513 0.0298118 0)
(0.0591434 0.0232645 0)
(0.0456075 0.0182385 0)
(0.0249561 0.00918018 0)
(0.0157883 0.00693731 0)
(0.0235657 0.00957537 0)
(0.00657246 -0.00519986 0)
(0.0270501 -0.0257119 0)
(0.0451165 -0.0529357 0)
(0.0902235 -0.0603454 0)
(0.102483 -0.0169987 0)
(0.103185 0.00632477 0)
(0.10058 0.0223782 0)
(0.0709627 0.0308818 0)
(0.0515855 0.0216445 0)
(0.0332016 -0.00925376 0)
(0.0483931 0.00711318 0)
(0.00428656 0.0151228 0)
(0.0310303 -0.00483639 0)
(0.0341727 0.00139249 0)
(0.0256512 0.0178028 0)
(-0.0070777 0.0148122 0)
(0.0135581 -0.0154577 0)
(0.0518192 0.00787673 0)
(0.0451571 0.0268027 0)
(0.0291806 0.0258539 0)
(-0.00741055 0.0208252 0)
(-0.0207725 -0.0113712 0)
(0.0174913 -0.0262727 0)
(0.0158364 -0.0126933 0)
(0.00685732 -0.0192713 0)
(0.0125928 -0.0359552 0)
(0.0285103 -0.0571024 0)
(0.0698766 -0.0837511 0)
(0.136692 -0.0615167 0)
(0.176852 -0.00584357 0)
(0.167536 0.0167589 0)
(0.143515 0.0322651 0)
(0.102419 0.0418353 0)
(0.084471 0.037922 0)
(0.0445112 0.0328577 0)
(0.0555367 0.0174339 0)
(0.0575317 0.0203227 0)
(0.0384684 0.00762399 0)
(0.0641486 -0.00167972 0)
(0.0497062 0.00244454 0)
(0.0328442 -0.00251857 0)
(0.0262287 -0.00625294 0)
(0.038262 -0.0253948 0)
(0.0859469 -0.0260205 0)
(0.118333 0.00559416 0)
(0.0893962 0.0147232 0)
(0.0712644 -0.00665461 0)
(0.0779906 -0.0170585 0)
(0.0805862 -0.00558745 0)
(0.0695601 0.00473463 0)
(0.0803167 0.0159736 0)
(0.0635723 0.0180024 0)
(0.0463331 5.8731e-05 0)
(0.0506605 0.0038791 0)
(0.0166613 -0.0020685 0)
(0.0207717 -0.0226576 0)
(0.0508147 -0.0145161 0)
(0.0717422 -0.00839962 0)
(0.089277 -0.000333971 0)
(0.0911651 0.0157345 0)
(0.0722502 0.013513 0)
(0.0760232 0.00704556 0)
(0.0652258 0.00269101 0)
(0.0633357 0.00639829 0)
(0.0645673 0.0107377 0)
(0.0593458 0.0153781 0)
(0.0354939 0.0158646 0)
(0.013954 0.00916373 0)
(0.00257068 0.00593115 0)
(0.00718532 -0.0210647 0)
(0.0609966 -0.0180373 0)
(0.0622765 -0.00192476 0)
(0.064096 -0.00914709 0)
(0.062646 -0.00965821 0)
(0.0714786 -0.00947222 0)
(0.0642839 -0.0054451 0)
(0.0608049 -0.0208952 0)
(0.0812647 0.00404971 0)
(0.0572771 0.0331772 0)
(0.059183 0.0128889 0)
(0.0680661 0.00848311 0)
(0.0677396 0.014729 0)
(0.0518685 0.00799152 0)
(0.0203403 0.00674179 0)
(0.000476018 -0.00232299 0)
(0.0196488 0.0052161 0)
(0.0125433 0.0065787 0)
(0.0123655 -0.0115008 0)
(0.00726459 -0.00547028 0)
(0.00800146 -0.0157959 0)
(0.0499446 -0.000590141 0)
(0.0298752 0.0260909 0)
(0.0138734 0.0199375 0)
(0.0081617 0.0283193 0)
(-0.0276835 0.027827 0)
(-0.0389714 0.0143078 0)
(-0.0328591 -0.0030232 0)
(-0.00847337 -0.00876103 0)
(-0.0177059 -0.00211363 0)
(-0.0278308 -0.00698419 0)
(-0.0257489 -0.0318664 0)
(0.00612831 -0.0483008 0)
(0.0180274 -0.0186103 0)
(-0.00255703 0.0190628 0)
(-0.0273198 0.0101616 0)
(-0.0143022 -0.0146265 0)
(-0.00263055 -0.0410179 0)
(0.0479508 -0.0589497 0)
(0.0981978 -0.0259542 0)
(0.100647 0.00298125 0)
(0.0907567 0.0189634 0)
(0.0514295 0.0287698 0)
(0.0263258 0.0365844 0)
(0.0116392 0.019831 0)
(0.0285839 -0.0134266 0)
(0.0340098 -0.0157212 0)
(0.0320525 -0.0152742 0)
(0.0438103 -0.000336201 0)
(0.0425854 0.00685588 0)
(0.0487413 0.00660437 0)
(0.025412 0.00494145 0)
(0.0311601 0.0146661 0)
(0.00611401 0.0354133 0)
(-0.0248263 0.04049 0)
(-0.0469486 0.0443549 0)
(-0.0562772 0.0317181 0)
(-0.0392706 0.0184933 0)
(-0.0543147 0.0156431 0)
(-0.0596034 0.00933608 0)
(-0.0580625 0.0044417 0)
(-0.0667337 -0.00688291 0)
(-0.0663263 0.00765942 0)
(-0.101817 -0.00596984 0)
(-0.0723356 -0.0380326 0)
(-0.0623437 -0.0227844 0)
(-0.0605249 -0.0392886 0)
(-0.000494133 -0.0403077 0)
(0.0105132 -0.027523 0)
(0.0273373 -0.0114176 0)
(0.0104609 -0.0120643 0)
(0.0176291 -0.0259554 0)
(0.0158226 -0.0201378 0)
(0.0315845 -0.0308381 0)
(0.0554905 -0.0334225 0)
(0.0677423 -0.0234027 0)
(0.0659609 -0.0177169 0)
(0.0912698 -0.00147944 0)
(0.0840884 0.00675531 0)
(0.0799653 -0.00170766 0)
(0.0651119 0.00256535 0)
(0.0540508 0.00305035 0)
(0.0584624 0.0154483 0)
(0.0597774 0.0218543 0)
(0.0596978 0.0229996 0)
(0.0438727 0.028549 0)
(0.0493046 0.0382238 0)
(0.0182912 0.027591 0)
(-0.003921 -0.00528533 0)
(0.00778859 -0.00158534 0)
(-0.00991527 0.0199418 0)
(-0.0336879 0.0123624 0)
(-0.00594773 -0.000378486 0)
(-0.0104155 0.0131654 0)
(-0.0291535 0.0012294 0)
(-0.0104025 -0.0184816 0)
(-0.0168987 -0.0192354 0)
(-0.0089742 -0.0276226 0)
(0.00769991 -0.0347486 0)
(0.0205158 -0.030912 0)
(0.0497328 -0.0032097 0)
(0.0337972 0.0181805 0)
(0.0176806 0.0217786 0)
(0.0235319 0.0306642 0)
(-0.00147457 0.04206 0)
(-0.0380032 0.0319941 0)
(-0.0586345 0.0258386 0)
(-0.103463 0.00518261 0)
(-0.0815524 -0.0359469 0)
(-0.0502455 -0.0203765 0)
(-0.0498667 -0.0397515 0)
(0.0372071 -0.0655617 0)
(0.0833928 -0.0190466 0)
(0.0687247 -0.000128969 0)
(0.0522547 0.017665 0)
(0.0114265 0.029982 0)
(-0.0060679 0.017021 0)
(-0.0291379 0.0133566 0)
(-0.046728 0.0279363 0)
(-0.0701361 -0.00711814 0)
(-0.0312582 -0.0512781 0)
(0.0119852 -0.0123726 0)
(0.0125102 0.027434 0)
(-0.00597412 0.0277314 0)
(-0.0194478 0.0151464 0)
(-0.026308 -0.00934573 0)
(-0.0105971 -0.022211 0)
(-0.0216631 -0.00656388 0)
(-0.0389887 -0.00650068 0)
(-0.0264228 -0.00808319 0)
(-0.0192636 -0.0109511 0)
(0.0268182 0.00683054 0)
(0.0262009 0.0270127 0)
(0.0185699 0.0187136 0)
(-0.00259899 0.0307089 0)
(-0.0398817 0.00444702 0)
(-0.00638833 -0.0258206 0)
(-0.00746789 -0.00731952 0)
(-0.0292778 0.00202556 0)
(-0.0470683 -0.00146659 0)
(-0.042525 -0.0465815 0)
(0.22247 -1.09451 0)
(0.672295 -1.08984 0)
(1.09566 -1.13953 0)
(1.53984 -1.13882 0)
(1.98737 -1.16693 0)
(2.43994 -1.21365 0)
(2.89993 -1.1455 0)
(3.32778 -1.12769 0)
(3.80076 -1.16656 0)
(4.29275 -1.21436 0)
(4.7858 -1.27399 0)
(5.25814 -1.23105 0)
(5.68326 -1.14478 0)
(6.14043 -1.1477 0)
(6.67152 -1.22268 0)
(7.22915 -1.28007 0)
(7.73316 -1.26496 0)
(8.20309 -1.28136 0)
(8.69793 -1.2852 0)
(9.17137 -1.28613 0)
(9.68468 -1.35421 0)
(10.2116 -1.39749 0)
(10.7368 -1.37435 0)
(11.2253 -1.35295 0)
(11.734 -1.33102 0)
(12.2505 -1.31611 0)
(12.7836 -1.3412 0)
(13.3113 -1.36045 0)
(13.8723 -1.36963 0)
(14.3913 -1.40189 0)
(14.9009 -1.3878 0)
(15.4293 -1.29927 0)
(15.9937 -1.2743 0)
(16.5139 -1.27696 0)
(17.0185 -1.25181 0)
(17.5568 -1.27101 0)
(18.1304 -1.32815 0)
(18.6981 -1.30239 0)
(19.1902 -1.22727 0)
(19.6327 -1.18363 0)
(20.0753 -1.19767 0)
(20.5895 -1.25967 0)
(21.0764 -1.28823 0)
(21.4851 -1.2157 0)
(21.916 -1.17707 0)
(22.463 -1.26513 0)
(22.9888 -1.32281 0)
(23.4286 -1.23407 0)
(23.8653 -1.02786 0)
(24.3078 -0.844692 0)
(24.669 -0.819985 0)
(24.9286 -0.924351 0)
(25.1812 -0.943663 0)
(25.6186 -0.862743 0)
(26.2058 -0.847938 0)
(26.6914 -0.926438 0)
(26.8951 -0.982237 0)
(26.954 -0.797298 0)
(27.2562 -0.605281 0)
(27.8968 -0.804064 0)
(28.4482 -1.10244 0)
(28.5369 -0.913516 0)
(28.3676 -0.327889 0)
(28.5297 -0.233966 0)
(29.1251 -0.860595 0)
(29.58 -1.22219 0)
(29.4947 -0.816403 0)
(29.1723 -0.284135 0)
(29.1363 -0.0283565 0)
(29.6313 0.115244 0)
(30.3774 0.0410185 0)
(30.6687 -0.258594 0)
(30.3162 -0.538673 0)
(30.1455 -0.775262 0)
(30.6229 -0.943053 0)
(31.3354 -0.986356 0)
(31.7352 -0.877317 0)
(31.5449 -0.162393 0)
(30.9877 0.931128 0)
(30.7973 0.916439 0)
(31.2322 -0.65137 0)
(31.7124 -1.84132 0)
(31.9696 -1.21102 0)
(32.2355 -0.0197072 0)
(32.3544 0.304985 0)
(31.9699 0.285598 0)
(31.5949 0.256058 0)
(31.8897 -0.274453 0)
(32.5597 -0.95545 0)
(32.9529 -0.77837 0)
(32.9096 0.0958035 0)
(32.7801 0.491655 0)
(32.6915 0.263374 0)
(32.437 0.263935 0)
(32.001 0.685872 0)
(31.5286 1.1717 0)
(31.0883 1.52577 0)
(30.5785 1.69258 0)
(29.9696 1.67348 0)
(29.286 1.58262 0)
(28.5691 1.59576 0)
(27.8397 1.68199 0)
(27.0961 1.74189 0)
(26.353 1.79514 0)
(25.5335 1.98657 0)
(24.6022 2.3243 0)
(23.5618 2.69219 0)
(22.414 3.06643 0)
(21.2096 3.32399 0)
(19.9747 3.43117 0)
(18.7703 3.39978 0)
(17.6295 3.19175 0)
(16.5741 2.9097 0)
(15.6068 2.61382 0)
(14.7266 2.33655 0)
(13.9195 2.08899 0)
(13.1968 1.87519 0)
(12.5135 1.72259 0)
(11.8804 1.60797 0)
(11.3183 1.46874 0)
(10.7701 1.33715 0)
(10.2485 1.24297 0)
(9.82651 1.15991 0)
(9.38266 1.06598 0)
(8.98875 0.968619 0)
(8.62867 0.892938 0)
(8.27869 0.839682 0)
(7.94397 0.797118 0)
(7.63391 0.74263 0)
(7.3639 0.713684 0)
(7.07644 0.672301 0)
(6.80734 0.625725 0)
(6.5628 0.593941 0)
(6.34659 0.572508 0)
(6.14866 0.542931 0)
(5.93486 0.530065 0)
(5.70709 0.511398 0)
(5.52354 0.50737 0)
(5.32826 0.516659 0)
(5.14115 0.487213 0)
(4.95343 0.461982 0)
(4.78852 0.440218 0)
(4.62042 0.425442 0)
(4.46562 0.411404 0)
(4.31183 0.388481 0)
(4.16571 0.357919 0)
(4.0184 0.354939 0)
(3.85519 0.32189 0)
(3.74793 0.281522 0)
(3.64743 0.269289 0)
(3.55451 0.25949 0)
(3.43465 0.234906 0)
(3.3528 0.2095 0)
(3.25794 0.229265 0)
(3.14301 0.229555 0)
(3.05468 0.226775 0)
(2.95348 0.215343 0)
(2.89326 0.209175 0)
(2.82003 0.191136 0)
(2.75327 0.195817 0)
(2.6512 0.198081 0)
(2.57647 0.165373 0)
(2.50668 0.147242 0)
(2.444 0.135004 0)
(2.38328 0.169095 0)
(2.28593 0.16077 0)
(2.24235 0.167526 0)
(2.16851 0.208147 0)
(2.10234 0.215178 0)
(2.02266 0.199436 0)
(1.96733 0.145328 0)
(1.91529 0.127159 0)
(1.8557 0.123875 0)
(1.81723 0.148182 0)
(1.73366 0.16511 0)
(1.67754 0.123457 0)
(1.66157 0.0815329 0)
(1.63932 0.0665809 0)
(1.61785 0.106524 0)
(1.55005 0.128441 0)
(1.49125 0.0801666 0)
(1.45539 0.0501558 0)
(1.43033 0.0481824 0)
(1.39691 0.0937293 0)
(1.34198 0.113996 0)
(1.30452 0.105131 0)
(1.2434 0.102611 0)
(1.19337 0.0723433 0)
(1.18753 0.0621639 0)
(1.17204 0.061831 0)
(1.18183 0.0686201 0)
(1.15999 0.107218 0)
(1.10782 0.104957 0)
(1.0772 0.0876305 0)
(1.03152 0.102364 0)
(0.969075 0.0657101 0)
(0.957336 0.033697 0)
(0.92684 0.0524797 0)
(0.902767 0.0398814 0)
(0.89381 0.0282209 0)
(0.900189 0.0599481 0)
(0.861816 0.0706557 0)
(0.83571 0.0374344 0)
(0.842564 0.0519915 0)
(0.795164 0.069665 0)
(0.757798 0.0678353 0)
(0.733208 0.0613014 0)
(0.730388 0.0657183 0)
(0.712283 0.0741336 0)
(0.67745 0.061352 0)
(0.655545 0.0388107 0)
(0.657671 0.0155266 0)
(0.640581 -0.0096456 0)
(0.654164 -0.0156531 0)
(0.639237 0.0120672 0)
(0.624801 -0.0112416 0)
(0.658733 0.0101276 0)
(0.64584 0.0782637 0)
(0.599503 0.107431 0)
(0.545615 0.113835 0)
(0.504661 0.0661746 0)
(0.482466 0.0178357 0)
(0.473435 0.00160076 0)
(0.4797 -0.00257574 0)
(0.461793 0.0236073 0)
(0.435464 0.0100409 0)
(0.437751 -0.058662 0)
(0.488372 -0.0666283 0)
(0.512256 -0.00615918 0)
(0.508269 0.0596505 0)
(0.468556 0.0657806 0)
(0.432206 0.0121826 0)
(0.448556 0.0176676 0)
(0.4285 0.0343014 0)
(0.435743 0.0275429 0)
(0.435306 0.0642406 0)
(0.389212 0.076349 0)
(0.362008 0.026404 0)
(0.368113 0.0059215 0)
(0.341932 0.0352489 0)