/*--------------------------------*- C++ -*----------------------------------*\
| =========                 |                                                 |
| \\      /  F ield         | OpenFOAM: The Open Source CFD Toolbox           |
|  \\    /   O peration     | Version:  v2012                                 |
|   \\  /    A nd           | Website:  www.openfoam.com                      |
|    \\/     M anipulation  |                                                 |
\*---------------------------------------------------------------------------*/
FoamFile
{
    version     2.0;
    format      ascii;
    class       volScalarField;
    location    "300";
    object      aE;
}
// * * * * * * * * * * * * * * * * * * * * * * * * * * * * * * * * * * * * * //

dimensions      [0 0 0 0 0 0 0];


internalField   nonuniform List<scalar> 
65536
(
1.55051
1.56396
1.56456
1.57486
1.57962
1.5992
1.59943
1.6245
1.62357
1.65535
1.65583
1.63185
1.62064
1.63678
1.63726
1.61833
1.62412
1.61855
1.61447
1.61181
1.61299
1.6152
1.59249
1.56632
1.55601
1.54984
1.54957
1.56403
1.5809
1.60025
1.61611
1.61112
1.60244
1.59705
1.59792
1.5974
1.60818
1.59288
1.5784
1.56939
1.43437
1.24464
1.01376
1.00107
1.1293
1.38131
1.14666
0.533403
0.427367
0.413059
0.377132
0.408151
0.399822
0.363205
0.940158
1.31007
0.722419
0.845605
1.04574
0.351213
0.553812
1.52195
1.72679
0.716441
1.11031
0.978171
0.762923
1.40658
0.673801
0.341847
0.835084
0.0272541
1.90929
1.5474
4.82271
3.07337
1.02595
0.64452
0.000543588
1.87645
3.92785
6.06963
2.08264
1.77348
0.746242
1.62856
2.08614
3.74351
4.52415
4.72672
4.73972
4.70313
4.71402
4.64302
4.71239
4.53953
4.73299
4.77427
4.76178
4.86147
4.69565
4.8237
4.83516
4.66408
4.87969
4.73965
4.81419
4.82725
4.87047
4.86136
5.03298
4.80008
4.93455
4.96442
4.94158
4.95374
4.94846
4.96033
4.93646
4.92342
4.88912
4.80602
4.88211
4.99432
4.95186
5.01953
4.9274
4.92129
4.8833
4.9086
4.96354
4.92665
5.00397
4.89912
4.94482
4.94084
4.95835
4.9876
4.91594
4.72502
4.84203
4.92197
4.94214
4.91957
4.89866
4.76444
4.86626
4.96567
4.95896
4.96261
4.9295
4.90689
4.84667
4.94929
4.95238
4.92501
4.9578
4.93498
4.97543
4.92362
4.97987
4.9012
4.93112
4.95957
4.98465
4.97405
4.9664
4.963
4.89175
4.89945
4.90547
4.94922
4.95772
4.94816
4.9184
4.98003
4.9241
4.9592
4.97751
4.91549
5.02128
4.92088
4.86007
4.94336
4.97688
4.9128
4.83909
4.85646
4.76746
4.9578
4.87493
4.99869
4.90521
4.74164
5.00638
4.88957
4.99263
4.84466
4.94982
5.00487
4.93864
4.94122
4.96369
4.95243
4.8858
4.94741
4.91793
4.89881
4.91009
4.72884
4.8422
4.83242
4.9533
4.97169
4.90848
4.76842
4.9807
4.91037
4.94542
4.93107
4.8462
4.85123
4.94734
4.93851
4.77774
4.92655
4.74009
4.90133
4.92529
4.93231
4.91867
4.84529
4.93596
4.94072
4.92253
4.87884
4.91718
4.83806
4.9696
4.90664
4.90986
4.83392
4.97854
4.99206
4.93125
4.98734
4.9844
4.90943
4.95999
4.92932
4.92373
4.99284
4.93049
4.96076
4.93342
4.88258
4.84629
4.80109
4.87546
4.85891
4.89646
4.88192
4.89784
4.91179
4.66514
4.94579
4.83542
4.84305
4.70587
4.89967
4.85203
4.91045
4.91303
4.9041
4.94406
5.0116
4.95159
4.94343
4.86721
5.02743
4.92849
4.83592
4.91746
4.86756
4.895
4.91785
4.78279
5.01488
4.89414
4.8902
4.91053
4.91886
4.9528
4.89211
4.72017
4.85466
4.90519
4.88025
4.91507
4.91776
4.94497
4.91064
4.70763
4.81818
4.94112
4.74334
4.85984
4.70479
4.87051
4.95973
4.96287
4.91873
4.93143
4.92189
5.01048
4.72571
4.90646
4.88374
4.86742
4.91909
4.90936
4.95512
4.90187
4.92893
5.00202
4.93416
4.90869
4.93823
4.742
4.9072
4.74745
4.87854
4.84913
4.9491
4.92976
5.03356
4.94551
4.92661
4.93771
4.93596
4.95341
5.03461
4.94106
4.93664
4.96783
4.95746
4.96462
4.92574
4.95707
4.90323
4.90192
4.88583
4.89633
4.85408
4.71063
4.89525
4.84624
5.0344
4.90099
4.94913
4.92158
4.91939
4.90985
4.91541
4.91184
4.90573
4.8898
4.92273
4.86788
4.92085
4.88899
4.92271
4.98469
4.9882
4.96364
4.95231
5.0519
4.94249
4.86572
4.9133
4.93938
5.00461
4.94
4.86727
4.88467
4.90559
4.96423
4.75659
4.9723
4.92641
4.92464
4.96316
4.93691
4.8782
4.81667
4.95723
4.92756
4.94997
4.97775
4.92576
4.8512
4.86543
4.86766
4.93524
4.77298
4.94677
4.9921
4.8704
4.88365
4.73444
4.88446
4.78792
4.97603
4.90688
4.9965
4.89878
4.92557
4.93494
4.96024
4.91539
4.95348
4.96736
4.91722
4.92255
4.93022
5.02915
4.92557
4.96543
4.99659
4.75881
4.89029
4.92615
4.94742
4.93817
4.91765
4.93049
4.96269
4.87599
4.81786
4.91571
5.03464
4.87278
4.90987
4.86911
4.99673
4.81154
4.85289
4.97901
5.02257
4.90594
4.83244
4.86926
5.00649
4.93677
4.91
4.98658
4.95408
4.91996
4.94466
5.01885
4.92559
4.94652
4.94664
4.93946
5.01336
4.90515
4.90932
4.92971
5.0002
4.95448
4.98725
4.93845
4.7456
4.93502
4.93562
4.94231
4.92649
4.87319
4.94859
4.83751
4.92959
4.92737
4.73037
4.86595
4.88814
4.99858
4.97339
4.89396
4.90897
4.87469
4.69068
4.76615
4.89966
4.92448
4.95693
4.92494
4.95732
5.01654
4.98134
4.92352
4.9543
4.94301
4.93374
4.88643
4.89521
4.8513
4.9422
4.73325
4.89557
4.87092
4.88947
4.69112
0.0426861
0.0241991
0.0229678
0.00788493
0.00102289
0.0274406
0.0205957
0.0513099
0.119054
0.103604
0.145368
0.202711
0.245874
0.235346
0.239685
0.270732
0.264117
0.275669
0.279917
0.285536
0.287665
0.286697
0.313347
0.338984
0.346796
0.354846
0.354872
0.338282
0.321626
0.305673
0.294272
0.296152
0.295678
0.297879
0.293247
0.283945
0.261481
0.265902
0.235199
0.0211645
0.187709
0.478171
0.794641
0.721483
0.520203
0.23239
0.485584
1.36559
1.73923
1.72496
1.60293
1.65814
1.70135
1.7309
0.946117
0.338676
1.65593
0.708531
0.680435
2.08239
1.14282
0.197387
0.0572566
1.30549
0.937537
1.10438
1.38829
1.22146
1.56017
2.18595
0.917025
2.66167
0.398927
1.1804
3.05311
0.493969
0.355699
1.44907
0.708509
2.5229
2.58255
2.30127
1.98448
0.92185
0.530114
0.561551
2.23363
1.65298
1.92197
1.86597
1.87494
1.96326
2.07957
1.98262
2.07484
1.5786
2.12433
2.00276
1.89793
2.19023
1.58746
2.05459
2.02826
1.48742
2.06164
1.68366
1.89381
1.91168
1.93207
1.90579
2.46567
1.67707
2.01684
2.08021
1.90898
1.94265
1.86387
1.92754
1.92648
1.86442
1.83178
1.60998
1.81856
2.11432
1.98686
2.18846
1.93133
1.91701
1.92293
1.9889
2.17666
2.10401
2.38908
1.88947
2.05908
2.0228
2.05176
2.18472
1.99411
1.47608
1.89731
1.97748
2.05759
1.9476
1.94119
1.5584
1.86429
2.14542
2.1486
2.07267
2.0634
2.05632
1.8649
2.11995
1.95539
1.8596
1.95341
1.87095
2.089
1.82727
2.03482
1.8737
1.92364
2.01477
2.02567
2.02009
2.01442
1.98769
1.86406
2.02299
1.98852
2.03176
2.08438
2.05462
1.96607
2.17893
1.98164
2.09797
2.19837
1.88736
2.38632
1.99985
1.7523
2.03897
2.18058
2.04144
1.85359
1.95407
1.73688
2.3188
1.92252
2.29487
2.01125
1.45668
2.28501
1.77654
2.25378
1.72872
2.09399
2.21129
2.01963
2.00878
1.97659
2.06106
1.83325
2.0363
2.00912
2.01236
2.10214
1.51467
1.97544
1.91056
2.29656
2.26043
2.11288
1.67113
2.24242
1.86832
2.00724
1.93461
1.72295
1.8393
2.17109
2.20976
1.72905
2.18515
1.57617
1.97888
2.01292
2.09386
2.10051
1.80103
2.1249
2.14164
2.03114
1.8753
2.02295
1.73823
2.21913
2.04556
2.12046
1.82795
2.28956
2.22544
2.05008
2.17979
2.18927
1.87703
2.04379
2.01887
1.96732
2.2747
2.11728
2.25447
2.23569
2.04146
1.94289
1.77191
2.0145
1.98497
2.23732
2.0903
2.19165
2.20799
1.45304
2.26553
1.94228
1.95835
1.5967
2.10989
1.88853
2.06492
2.01984
1.97481
2.05618
2.28257
2.04177
2.09659
1.75427
2.32579
1.971
1.74568
1.98114
1.853
1.89357
1.96836
1.63613
2.41579
1.97132
1.99083
2.14798
2.11793
2.229
2.09416
1.57318
1.9499
1.97742
1.88503
2.01828
1.99616
2.14064
2.03085
1.48577
1.85129
2.25282
1.66309
2.09097
1.64099
1.98537
2.15243
2.12985
1.99659
1.9282
1.96917
2.38943
1.59627
2.08092
1.94023
1.77457
1.97656
1.87882
2.10019
1.93586
1.98335
2.28047
2.08965
1.95218
2.17395
1.64931
2.17532
1.48965
1.87879
1.8084
2.10675
1.96948
2.36677
2.05969
1.93525
1.96554
2.00976
1.97534
2.35065
1.95433
1.99285
2.11357
2.00792
2.05903
1.91992
2.06232
1.95025
1.92337
1.89054
2.02772
1.91953
1.54236
2.11604
1.7824
2.49697
1.96701
2.04725
1.91811
1.96394
1.9087
1.95371
2.04632
1.9848
1.83126
1.95315
1.76107
1.96975
1.87097
1.92595
2.1406
2.11677
2.04447
1.94735
2.35368
1.93961
1.7362
1.95761
2.01961
2.25101
2.05129
1.88144
1.96415
1.92177
2.12824
1.47726
2.13171
1.92071
1.91411
2.04939
1.90117
1.75993
1.61847
2.05419
2.02842
2.00717
2.16176
1.98715
1.73827
1.77981
1.75417
2.06982
1.59454
2.1437
2.31547
1.85906
2.03154
1.66609
2.03091
1.6426
2.22787
1.79639
2.18472
1.85244
1.92509
1.89834
1.99184
1.88961
1.91049
2.04319
1.91065
1.97898
1.91401
2.34289
1.98495
2.15065
2.2548
1.63406
1.91288
2.05356
1.94711
2.04971
1.9247
1.93708
2.16656
1.79144
1.62738
1.92335
2.36571
1.90734
1.97943
1.89736
2.34146
1.71625
1.89493
2.28211
2.46991
2.00965
1.76331
1.82969
2.29648
2.06134
1.8693
2.15685
1.98182
1.88994
1.9957
2.27201
1.94459
1.91583
1.97668
2.04427
2.31136
1.84685
1.99932
1.92437
2.2536
2.11097
2.26374
2.04219
1.47449
2.09669
1.99439
2.03496
1.85729
1.77558
2.10434
1.8458
2.01787
2.02587
1.51765
1.97598
1.93817
2.37003
2.19036
1.97423
2.06612
1.97415
1.5167
1.67393
1.99153
1.91854
2.04584
1.85895
2.04636
2.3001
2.10268
2.071
2.08256
2.09069
2.04155
1.95145
1.91691
1.81594
2.17362
1.54844
2.06125
1.93123
2.12754
1.63975
1.7632
1.77683
1.77507
1.78828
1.79615
1.82033
1.81847
1.84787
1.83755
1.87999
1.85565
1.81055
1.80228
1.80718
1.8082
1.7992
1.8029
1.79887
1.79784
1.8004
1.80487
1.80845
1.78441
1.76152
1.7555
1.75154
1.74589
1.75446
1.76847
1.78192
1.79761
1.79675
1.78841
1.77112
1.75809
1.75031
1.7501
1.73636
1.68088
1.72675
1.59593
1.38518
1.10282
1.11043
1.19515
1.37814
1.19546
0.514193
0.182364
0.0358498
0.165039
0.188482
0.0855896
0.144247
0.916471
1.55301
0.056257
1.24989
1.16602
0.095546
1.45516
2.0025
2.50858
0.395105
0.620951
0.603402
2.14734
2.61551
1.00426
1.20838
1.43484
0.0468275
0.25989
2.31706
0.0230316
0.596503
1.37578
0.70432
1.52205
0.218417
0.674088
0.980417
0.687448
0.912804
1.44317
0.85491
0.893991
2.04634
1.1515
1.5161
1.56367
1.47908
1.29492
1.39028
1.3419
2.02106
1.25085
1.38635
1.58854
1.17308
2.08581
1.28629
1.49818
2.27509
1.57183
1.76536
1.46359
1.34856
1.5325
1.44344
0.692833
1.85778
1.38239
1.05866
1.37466
1.26351
1.51349
1.36977
1.34616
1.49425
1.48595
1.85287
1.6173
1.2657
1.32821
1.10879
1.36607
1.49044
1.29438
1.43481
1.26423
1.31985
0.771201
1.56085
1.19278
1.23516
1.28572
1.14625
1.52451
2.28746
1.53076
1.67993
1.42088
1.50419
1.48509
2.04313
1.52614
1.13903
1.12065
1.50407
1.31285
1.19748
1.57647
1.26925
1.62275
1.55048
1.37899
1.44991
0.993467
1.51162
1.27464
1.31432
1.30217
1.21784
1.31151
1.26178
1.20687
1.43278
1.5726
1.34115
1.30858
1.2706
1.12513
1.18863
1.4217
1.22174
1.42523
1.18581
1.07871
1.73501
0.762603
1.36058
1.82547
1.43623
1.1638
1.28651
1.66824
1.58887
1.84114
0.948489
1.61029
1.12535
1.43418
2.24861
1.10402
1.85696
0.983393
1.83896
1.22128
1.16252
1.18899
1.1976
1.527
1.21195
1.59245
1.43672
1.32085
1.38711
1.44437
2.39823
1.63289
1.60938
1.01613
1.25014
1.33046
1.89562
1.07188
1.66994
1.35982
1.5419
1.81879
1.6105
1.10708
1.143
1.86699
1.24565
2.06518
1.53739
1.42847
1.19245
1.13521
1.79012
1.19766
1.06795
1.33293
1.60497
1.4528
1.89337
1.1249
1.26943
1.18884
1.73625
1.07928
1.35786
1.35658
1.14876
1.03128
1.64663
1.53473
1.42093
1.54967
0.993258
1.2478
1.10514
1.03656
1.40012
1.57226
1.99769
1.52335
1.46083
0.896207
1.24597
1.06308
1.2186
2.29892
1.18744
1.54317
1.60225
2.06602
1.3792
1.5951
1.36929
1.41653
1.39828
1.28368
1.04035
1.50162
1.24888
1.81952
0.976116
1.51372
1.74316
1.46974
1.54631
1.64002
1.74026
1.95392
0.784725
1.46825
1.44747
1.13142
1.48644
1.50245
1.50495
2.12905
1.46967
1.51553
1.56919
1.39187
1.56175
1.18545
1.54774
2.28556
1.74515
1.18555
2.07406
1.31484
1.94319
1.4721
1.1987
1.20622
1.3112
1.63554
1.51362
0.881679
1.92517
1.24922
1.31047
1.71513
1.40997
1.70053
1.25816
1.44705
1.64196
1.05967
1.222
1.51114
1.2331
1.895
1.09227
2.34543
1.72975
1.66925
1.29352
1.48368
0.817118
1.31683
1.55815
1.50015
1.22212
1.54297
0.776307
1.49831
1.24819
1.06128
1.31168
1.21895
1.52927
1.27642
1.2893
1.52802
1.5628
1.30938
1.579
2.15835
1.38221
2.07849
0.787896
1.43157
1.36011
1.55656
1.36117
1.58272
1.46539
1.14171
1.39916
1.73803
1.41862
1.8282
1.39779
1.4499
1.43005
1.11144
1.1966
1.30883
1.54066
0.917639
1.58372
1.76489
1.36581
1.41272
1.16866
1.42459
1.41249
1.2834
1.54715
1.37646
2.2669
1.30854
1.55717
1.36535
1.2006
1.55853
1.75174
1.92649
1.35082
1.11348
1.29955
1.08614
1.30789
1.6966
1.63452
1.58591
1.21422
1.89325
1.2316
1.00867
1.79622
1.49317
1.93103
1.44191
1.96252
1.0666
1.9006
1.07629
1.40596
1.39244
1.51562
1.43903
1.44573
1.57128
1.32712
1.46825
1.38483
1.71004
0.929855
1.48749
1.21088
1.17983
1.76987
1.64772
1.25567
1.67593
1.12138
1.36233
1.42226
0.898635
1.68746
2.01731
1.59764
0.913604
1.37288
1.52388
1.4883
0.914262
1.94483
1.62876
1.18504
0.741977
1.47874
1.80139
1.78839
1.04643
1.26367
1.55834
1.22085
1.46128
1.54627
1.43901
1.21333
1.53162
1.66278
1.4573
1.17728
0.912503
1.68046
1.21899
1.64208
1.02552
1.18381
0.897786
1.5542
2.29859
1.24623
1.4618
1.28557
1.76993
1.74847
1.23244
1.58282
1.5359
1.461
2.08923
1.31914
1.48078
0.852771
1.43104
1.62083
1.37227
1.56605
2.1033
2.02012
1.36011
1.56249
1.30806
1.68697
1.32014
0.992677
1.41631
1.08033
1.15958
1.08177
1.32084
1.415
1.72995
1.79713
1.24478
2.11706
1.30769
1.575
1.38012
2.03951
0.693566
0.682609
0.677942
0.667103
0.662745
0.649076
0.646421
0.627105
0.629915
0.609677
0.594974
0.64798
0.672894
0.647065
0.653139
0.687385
0.686373
0.690224
0.696734
0.704686
0.709484
0.713443
0.739982
0.768275
0.773681
0.777984
0.771496
0.753957
0.739035
0.720631
0.714231
0.708359
0.698473
0.679974
0.659092
0.64156
0.629673
0.629124
0.593145
0.619422
0.736682
0.931617
1.17449
1.07229
0.853688
0.606588
0.845834
1.55365
1.71703
1.82999
1.51453
1.49204
1.6493
1.74239
0.881402
0.0402369
1.71016
0.867348
0.0735355
1.94871
0.895186
1.06209
2.58178
0.464819
1.07886
0.759947
0.682041
2.14445
0.0907276
3.58977
2.51809
0.929133
0.546836
0.688338
0.0889679
1.82003
0.0132198
1.39542
0.145589
0.0435728
1.4048
0.508533
1.89211
0.0710879
0.21741
1.81158
1.11301
0.466817
1.63419
0.799742
1.01741
1.03403
1.38494
1.43093
1.48332
0.386882
1.2271
1.15217
0.806091
1.39555
0.299383
1.36532
1.01597
0.0158278
0.956401
0.747691
1.11671
1.41277
0.987389
1.17163
1.98247
0.324279
0.885664
1.43422
0.992599
1.10784
0.629303
1.03485
1.0417
0.967569
1.03921
0.523765
0.862811
1.22974
1.13784
1.33684
1.09394
0.944937
1.34429
1.05649
1.21998
1.09418
1.83034
0.926398
1.40412
1.32855
1.15153
1.22792
0.949857
0.0478634
1.0666
0.721632
1.0899
1.16723
1.14198
0.395378
1.06783
1.41187
1.48974
0.889775
1.33249
1.53125
0.768266
1.00629
0.634339
0.85886
1.03763
0.815448
1.34588
0.75737
1.23335
1.39167
1.36911
1.29647
1.1344
1.04697
1.24386
1.08283
0.920057
1.04607
1.32737
1.4398
1.44737
1.37224
1.06319
1.46114
1.14616
1.44442
1.37221
0.60722
1.84172
1.21052
0.641046
0.981142
1.35992
1.45484
0.793567
0.898847
0.367905
1.74173
1.01002
1.54427
1.24592
0.123976
1.34425
0.510611
1.51425
0.160835
1.23906
1.35174
1.45315
1.36718
0.624444
1.15229
0.760515
0.771609
1.1894
1.26115
1.29694
0.249654
1.05639
1.01159
1.59131
1.33666
1.31265
0.612292
1.62222
0.717421
1.16001
0.942902
0.775213
0.878249
1.64373
1.4804
0.556909
1.4201
0.409596
1.02119
1.01934
1.33219
1.44258
0.458191
1.35102
1.59179
1.19834
0.813385
0.933667
0.342418
1.40771
1.39314
1.44175
0.79112
1.69385
1.25032
1.2926
1.44605
1.65774
0.830481
0.952411
1.19603
0.958629
1.61846
1.29593
1.4378
1.75392
1.31494
1.17209
0.488474
1.26398
1.25166
2.06107
1.59272
1.87376
1.73499
0.310322
1.61089
1.11465
1.1143
0.605182
1.33841
1.05383
1.15776
1.09363
1.01916
1.48198
1.56316
0.847183
1.27637
0.605047
1.58133
0.965373
0.686964
1.04398
1.0099
0.869916
0.566057
0.548249
2.01805
1.19047
1.18512
1.70212
1.01271
0.93166
1.15349
0.254284
1.09702
0.992122
0.940482
1.14868
0.824064
1.44462
0.938904
0.0558403
0.724859
1.42809
0.136012
1.48242
0.800399
1.39021
1.52323
1.27006
1.26752
0.845996
0.994837
1.88711
0.826652
1.49287
1.33351
0.804187
1.00232
0.536208
1.27472
1.11047
0.573223
1.52174
1.39201
1.1237
1.26552
0.439755
1.66936
0.0422912
0.786904
0.849127
1.13036
1.09051
1.85824
1.00543
0.872191
0.902849
1.36645
0.784292
1.90648
0.891745
1.38521
1.50829
1.21456
1.34601
0.782212
1.17803
1.28632
0.818594
0.899646
1.24836
1.01351
0.305307
1.35307
0.463893
2.03818
1.26184
1.24294
0.935594
1.17232
0.738883
1.03001
1.65313
1.09012
0.646172
1.24243
0.507025
1.22224
1.24354
1.25983
1.40853
1.22987
1.10686
0.92386
1.61876
0.855077
0.821875
1.3716
1.12949
1.41492
1.12719
1.27579
1.27544
0.877993
1.06054
0.147395
1.26975
0.889373
1.3652
1.27954
0.914754
0.693685
0.452197
1.14205
1.51205
1.33218
1.3353
1.28871
0.842824
0.723721
0.937393
1.19014
0.408559
1.26567
1.60242
0.690634
1.11485
0.631675
1.28721
0.48384
1.68302
0.410949
1.32531
1.2716
1.20245
0.972637
0.925174
0.87573
0.912646
1.12564
1.13354
1.19199
0.754431
1.78937
0.998217
1.38646
1.35828
0.776515
0.806996
1.23952
0.673134
1.58703
1.35885
1.25157
1.92724
0.823625
0.291543
0.971862
1.8288
1.49478
1.08621
1.23063
1.9273
0.635535
1.12785
1.47376
1.99546
1.09113
0.687496
0.623224
1.54051
1.23311
1.04027
0.985331
0.887478
0.96154
1.17537
1.1998
0.917651
0.748985
1.03273
1.39225
1.68964
0.950143
1.50526
0.83618
1.44183
1.41418
1.91377
0.966732
0.314624
1.42595
0.920799
1.16537
0.679282
0.66688
1.45256
1.08198
0.956782
1.2638
0.695469
1.46582
1.24899
1.8987
1.03073
0.874137
1.26855
1.04961
0.451442
0.150879
1.22125
0.83351
1.06377
0.634215
1.30559
1.61086
1.11598
1.28887
1.52708
1.59789
1.27489
1.26283
0.788001
0.723681
1.4545
0.389893
1.48496
1.13094
1.18328
0.659907
1.69588
1.70152
1.7014
1.71278
1.71465
1.73124
1.72425
1.74552
1.78536
1.77157
1.79431
1.80411
1.80685
1.81627
1.81488
1.81086
1.81716
1.8127
1.80595
1.81277
1.82418
1.82029
1.8005
1.77563
1.76347
1.75581
1.73469
1.73171
1.76381
1.80643
1.8275
1.80304
1.77099
1.73979
1.72536
1.73431
1.74738
1.69359
1.70576
1.60252
1.48829
1.31056
1.09863
1.0366
1.16886
1.30952
1.1202
0.583564
0.413417
0.431414
0.0880615
0.418349
0.162176
0.172017
0.701931
1.744
0.455113
0.297867
1.0114
0.268809
2.16222
2.11683
0.560577
0.177005
0.963397
0.297424
2.15457
1.32072
1.34411
5.00072
2.65257
0.517654
0.623717
2.20096
0.240416
1.90068
1.90989
1.28809
1.41372
2.09974
0.0943009
1.09466
0.376576
0.0461066
1.76172
0.172181
2.19252
0.570041
0.778767
1.37619
1.03619
1.35018
0.887571
0.838343
0.969903
2.07551
1.01901
0.96421
1.43414
0.842545
1.71388
0.676507
1.5735
2.59739
1.2279
1.08256
0.88177
0.52447
1.12195
0.994919
0.0964586
1.75471
0.921307
0.319956
0.867284
0.74408
1.38996
0.841579
0.920597
1.08743
1.12844
1.60317
1.25033
0.975609
0.915202
0.625101
0.861774
1.11842
0.705249
1.15396
0.860703
1.10267
0.305384
1.14692
0.493598
0.678366
1.06504
1.26919
1.69742
2.62163
1.31602
1.71668
0.964106
0.77284
1.06771
2.19111
1.1972
0.947927
0.631272
1.41657
0.704044
0.494581
1.53188
1.0966
1.51181
1.2793
0.948757
1.26601
0.551503
1.30007
0.591684
0.195844
0.00704486
0.436875
0.747087
1.10225
0.842303
0.878086
1.1587
1.27212
0.426158
0.400205
0.610913
0.67746
1.05628
1.99305
0.808945
0.619793
0.731975
1.61853
0.0366362
0.98177
1.56238
1.20971
0.802845
0.536866
1.44079
1.23069
1.37775
0.449549
1.28766
0.640846
1.06792
2.49069
1.04274
1.70807
0.377581
1.40432
1.05004
1.26478
0.577483
0.204938
1.26862
0.848507
1.38296
1.5633
0.923312
0.866891
0.990856
2.3416
1.26743
1.33531
0.791426
1.28302
1.13355
2.08402
0.479717
1.49891
0.7945
1.22229
1.23821
1.25636
0.0419078
0.590233
1.86873
0.727039
2.12746
1.22798
1.24881
0.786839
0.523745
1.69637
0.712881
0.416447
0.998202
1.39777
1.08589
1.67056
0.700934
0.647751
0.726898
1.56094
0.639023
1.17174
1.01946
0.803367
0.394742
1.40927
1.21793
0.848918
1.29071
0.587174
0.859187
0.879607
0.329865
1.02823
1.16193
1.96925
0.990971
1.08451
0.0749891
0.795962
0.333791
0.725748
2.65705
0.887382
1.22481
1.30837
2.3602
0.812631
0.727612
0.855118
0.981774
1.34307
0.463774
0.508473
1.5226
0.921426
1.71615
0.46789
1.20088
1.46629
1.03559
1.00113
1.22253
1.75689
1.6199
0.244695
1.07665
1.04402
0.37464
1.60059
1.94688
1.44425
2.15469
1.15395
1.0441
1.10704
0.833898
1.20801
0.162876
1.14658
2.37952
1.65515
0.634044
1.7557
0.692725
2.38741
0.853776
0.493699
0.785897
0.709196
1.16412
1.03896
0.232868
2.46501
0.413861
0.380757
0.778077
0.999119
1.59096
0.609447
0.907324
1.91173
0.941518
1.03024
1.06773
0.900392
1.96531
0.630131
2.5154
1.47018
1.28313
1.16996
1.04329
0.313495
1.37613
1.18568
0.802458
0.289599
1.20472
0.0539166
1.33106
0.604027
0.498689
0.80546
0.309427
1.12144
0.427878
0.203741
0.963926
1.13353
0.731816
1.1756
2.24836
1.04246
2.16304
0.333689
0.944949
0.661735
0.813582
0.689245
1.28864
1.14892
0.319699
1.08999
1.30385
0.0562126
1.43482
0.911471
0.797968
0.739306
0.736403
0.898146
1.04857
1.3661
0.798971
1.59072
1.36878
0.659032
1.11697
0.80415
0.983872
0.546578
0.0374238
0.976557
1.23371
2.52508
0.842752
1.06052
0.46621
0.909606
1.23231
1.44205
1.41993
0.868405
0.605746
0.626287
0.724221
0.740065
0.974451
0.93667
0.477826
0.479465
1.81925
1.11732
0.646146
1.75724
1.29693
2.08955
0.997332
1.8659
0.100548
1.60079
0.893028
0.516307
0.617117
0.998455
1.08012
1.44821
1.05582
0.845887
0.765444
0.899521
1.31036
0.171559
1.19954
0.689563
0.766733
0.838978
1.34789
1.07222
1.60422
0.33232
0.519465
0.741005
0.0431131
1.61819
2.18558
1.26842
0.428807
0.727567
1.1974
0.845455
0.00355189
1.49849
1.09666
1.00215
0.107257
1.11756
1.62126
1.83738
0.723891
1.08808
1.07149
1.34831
1.19671
1.15934
1.25115
1.78388
1.7354
1.4672
1.04337
1.04183
0.755138
1.00825
0.373821
1.00545
0.553511
0.666854
0.108276
1.60805
2.7965
0.920297
1.15899
0.952597
1.2989
1.50367
0.727342
2.17516
1.19749
1.04293
2.61639
0.148628
0.513501
0.115748
1.46949
1.62491
1.04836
1.41524
2.2873
1.7121
0.804195
1.35416
1.07426
1.7242
0.984863
1.07068
1.22567
1.08248
0.219964
0.467995
0.879546
0.832545
1.47565
1.484
0.752636
2.31809
0.674684
0.902611
1.16668
2.5193
1.11199
1.10818
1.10207
1.0991
1.09614
1.09136
1.08376
1.07723
1.07304
1.0634
1.03242
1.02694
1.04326
1.00326
0.998982
1.03276
1.02294
1.02803
1.02262
1.019
1.01691
1.01231
1.02311
1.03154
1.03684
1.04299
1.00793
0.969508
0.970262
0.992344
1.00917
0.993346
0.957412
0.888928
0.859306
0.89783
0.900541
0.860239
0.801689
0.947709
1.00726
1.09922
1.15585
1.08924
0.975519
0.665565
0.936863
1.3832
1.51417
1.31713
1.56943
1.57964
1.32588
1.42725
0.632204
0.612282
0.734955
0.694362
0.439431
2.82515
2.4124
0.12811
1.08571
0.638421
0.807164
0.161849
0.509745
0.338968
2.40494
0.0803853
3.63235
0.0575959
1.43419
1.76577
1.55797
3.71675
2.30437
1.43345
1.28208
1.69261
1.80273
2.49386
1.00232
1.95808
0.69442
0.575439
0.572574
1.94102
0.554159
1.08491
0.978385
0.6918
1.25341
1.44404
1.72165
1.64488
0.169209
0.89104
0.290697
1.14002
0.0886144
0.651854
0.238668
2.43182
1.14096
0.393265
0.895437
1.90762
1.02841
1.26147
2.11224
0.789994
0.32182
1.27852
0.613144
0.811988
0.16191
0.942016
0.90562
0.74936
0.861155
1.32707
0.558265
1.75463
0.838094
1.0032
0.691819
0.462845
1.21762
0.713997
1.15652
0.304274
2.21396
0.75887
1.23112
1.00358
0.645251
0.401124
0.129462
2.21439
0.725825
1.66067
0.960852
1.20414
1.01997
1.87393
0.518621
0.846167
1.57524
1.10957
1.24728
1.464
1.09998
0.47252
0.174278
0.24637
0.638858
0.185294
0.951429
0.28406
1.21557
1.42245
0.735414
0.950437
0.854335
0.306097
0.805962
1.0509
1.00917
1.40346
1.48437
1.55473
1.06235
0.936748
0.544611
2.71977
0.63136
1.1156
1.54351
0.642396
1.77376
1.06476
0.598773
0.898437
0.851748
1.29775
0.214683
0.479357
0.705553
2.21468
0.888902
1.86859
0.963254
1.91147
0.691708
0.0955027
1.59474
0.730829
0.756247
2.3557
1.18855
0.0140788
0.0703151
1.01551
0.760022
0.0625186
0.893617
0.749504
0.650855
1.04389
0.534514
0.477085
1.12086
2.05396
0.902509
1.43665
1.27731
0.197449
1.11459
0.684286
1.03293
0.325547
1.13107
0.978539
1.22295
0.927822
1.41743
0.329881
0.381111
1.00222
1.364
1.34413
1.04813
1.56954
0.870136
0.268245
0.507582
0.97735
0.920132
1.16136
0.750203
0.2057
2.02408
1.70054
1.03729
1.21211
1.70367
0.59259
1.4074
1.11898
0.388791
0.783263
0.782718
0.464626
1.62799
1.08725
0.919263
1.62227
0.791173
0.855828
1.9101
1.27493
1.95067
1.56375
2.06339
1.10078
0.78678
0.589646
1.89439
0.720982
0.452531
1.11055
0.573696
0.254393
1.39186
1.78224
0.328158
0.967366
0.109802
1.33548
0.700054
0.434492
0.89766
0.979393
0.820549
0.183464
1.19949
2.41632
0.980779
0.868145
1.643
0.139058
2.33819
0.694362
1.56531
0.486654
0.728855
0.626814
0.921067
0.786848
0.687697
0.289709
1.70139
0.0873607
1.67749
0.924398
0.918752
2.26847
1.02404
1.33307
0.973329
1.28143
1.03553
0.891726
1.23926
1.80239
0.86004
0.80492
0.597146
0.538145
0.367938
1.18281
1.0772
0.211603
1.95377
0.907958
0.817076
0.935347
1.43961
1.10575
2.05725
0.202249
0.672085
0.6755
0.967694
1.90022
0.543604
0.466103
0.650044
0.119647
0.142029
1.93024
0.543685
1.3353
1.29711
0.601206
0.859908
0.418134
1.08424
0.696252
0.484638
0.415127
1.08359
0.432636
1.59208
0.92582
1.6467
2.35533
1.14754
1.19923
1.00007
0.991809
0.495475
0.632932
1.5588
0.611842
0.210105
0.207385
0.245744
0.962537
1.12143
1.16942
0.813039
0.397001
0.47743
0.668441
2.3304
0.649562
0.894095
1.71882
0.986758
1.81318
0.695804
1.03394
0.317186
0.598576
0.345822
1.78112
1.27815
0.737629
1.24618
0.755616
0.439885
0.313718
0.736212
0.742683
1.10693
1.23508
1.24172
1.38958
1.41574
0.808282
0.817451
0.96317
1.47744
0.727136
1.94775
0.619398
0.650696
1.6303
0.585482
1.74711
2.28062
0.302096
0.872864
1.4597
1.25972
0.766573
0.747841
0.197929
0.829468
0.992001
1.09083
0.572816
0.685737
1.7566
0.802629
1.37133
1.46765
0.228338
0.962525
0.537389
0.022385
1.60401
1.39216
0.981731
1.67096
0.0672026
1.99535
1.04115
2.37069
1.76305
0.971525
1.5068
2.00502
0.875784
1.24221
2.00445
1.79427
0.837966
0.191537
0.0259535
1.80973
0.88171
0.886689
0.250331
0.621209
0.497137
0.810067
2.79224
0.148629
0.692791
1.00105
0.920318
2.62536
1.16373
1.35953
0.645917
0.875557
1.03654
1.99507
0.171001
2.08478
0.694746
0.52112
0.810933
0.736435
0.354743
0.964099
2.23201
0.634615
0.558252
2.14329
0.233652
0.983236
2.10766
1.7606
0.344547
0.963537
0.238124
1.75712
1.11121
0.904084
0.335761
0.871819
0.307711
1.36594
2.70391
1.32168
0.0784577
1.19944
1.15724
0.825312
1.12902
1.37827
0.253101
1.16433
1.75523
1.22809
1.06919
0.161085
2.25887
1.47388
1.48084
1.4791
1.47828
1.47791
1.48914
1.48171
1.48852
1.51517
1.49972
1.51179
1.54385
1.55416
1.53723
1.53443
1.54246
1.54502
1.56074
1.55119
1.52786
1.52723
1.53272
1.52408
1.52003
1.52257
1.52532
1.51578
1.50493
1.48763
1.48064
1.49451
1.49899
1.48081
1.40431
1.37872
1.43808
1.45644
1.37181
1.28942
1.18042
1.13809
1.02671
0.907177
0.894181
0.905929
1.00775
0.901404
0.286949
0.112348
0.324525
0.554979
0.389206
0.181434
0.309504
0.941206
0.65514
1.01474
0.230588
1.29881
1.74429
1.57083
0.954476
0.662066
0.0254734
0.879892
0.65784
1.21793
2.26331
2.213
4.84101
1.07914
1.03055
0.889056
0.690859
3.22572
1.00023
3.74064
1.75009
1.54156
0.679563
3.13579
1.93611
1.22879
0.974489
1.38166
1.72608
0.335819
0.736405
1.37692
0.443976
1.22011
1.33059
0.85886
0.668041
0.52114
1.31935
1.32447
0.873896
1.47283
0.741444
0.357321
0.491211
1.47634
0.635017
1.01501
0.972131
1.58037
1.84668
0.676469
0.685681
1.26027
1.19247
0.577908
0.37775
0.906534
0.662535
1.54138
0.579643
1.21616
0.997789
1.52403
0.994445
1.18795
1.61045
0.488546
0.740805
0.705942
1.04549
0.287863
1.12348
0.652126
0.131516
1.24858
0.115796
0.751229
0.702086
1.40547
2.08617
2.12454
1.31256
0.57243
1.67977
0.306703
0.580485
1.60184
1.37146
1.69807
1.68275
0.0174167
0.654484
0.246157
0.197205
1.46072
1.06622
1.30796
1.59506
0.924289
1.31608
0.532842
1.05364
0.228742
0.651501
0.559503
0.603635
1.1199
1.29688
0.730419
0.831865
2.08042
1.45497
0.151653
0.138888
0.78657
0.669396
0.74601
0.240237
0.758522
0.381976
0.0152968
1.81374
0.842362
0.777891
2.26991
0.727759
1.04852
0.385746
1.44434
1.246
1.67443
1.96534
0.890321
1.31837
0.724445
1.44915
1.68267
1.55254
0.00897557
1.45868
1.15903
2.54758
0.449157
0.917301
1.28377
0.445998
2.34391
1.60537
0.43021
0.860982
0.990201
2.40401
0.968742
1.08594
0.586187
1.87564
0.561418
1.68202
0.36502
1.45528
0.400428
1.17484
2.02952
0.969575
0.557296
0.952818
1.53635
0.903827
1.38572
1.18501
1.38232
0.661125
0.175788
1.24737
0.631918
0.0797416
0.79878
1.19764
0.877266
1.33426
0.938747
0.293738
0.242199
1.30685
1.37224
1.50008
0.750135
0.604455
0.0326645
1.15488
1.60268
0.578498
1.24793
0.0175179
0.572008
0.938661
0.9098
0.651618
0.734466
2.4085
0.901439
0.470334
1.07464
0.674189
1.41163
0.231724
1.67253
1.19403
1.48534
1.62004
1.37525
0.683085
0.545922
0.848133
0.824036
1.2319
0.118232
1.45063
1.77307
1.20401
2.17196
0.742671
0.987612
1.67333
0.706764
0.386463
0.860609
2.07284
2.42083
1.78526
0.664998
0.720761
0.662119
0.402714
2.42457
1.00882
1.26005
0.807654
0.68993
0.705835
0.389192
0.605264
0.00805438
0.939167
1.39375
2.23279
1.37667
1.23698
0.580174
0.882758
1.32855
0.00582337
0.871615
0.194298
2.01677
0.503154
0.0662441
1.18051
0.590595
1.18781
0.914472
1.09655
2.0568
0.474866
0.30088
1.88478
1.45212
0.734394
0.257453
0.327719
1.29374
0.825967
1.1993
1.64935
1.40727
1.07847
0.48226
0.666628
0.820163
1.01542
0.615805
0.100623
1.17197
0.77943
1.0302
0.106186
0.0971902
1.04624
0.533225
0.64212
0.19373
1.28146
1.06005
1.03721
0.44762
0.726593
1.4086
0.704282
2.96836
1.51792
0.325701
0.0339379
0.321953
0.488151
0.830083
0.602447
0.469605
1.05455
1.07637
0.10619
2.10005
0.972906
1.06312
0.495887
0.762414
0.400847
1.2274
1.06164
1.9103
1.45555
2.00585
0.149758
1.00647
1.45854
0.818291
1.02462
0.757554
1.12546
1.37064
1.13688
0.909042
0.717432
0.324249
1.10615
1.54089
1.92651
1.73265
1.17716
0.477534
0.391879
0.361499
0.268861
2.11763
1.15209
1.02489
0.0833047
0.727201
1.22777
1.47099
2.52854
1.28332
1.56032
1.19165
0.516073
1.86161
1.77618
1.20281
0.033241
0.0592457
0.477297
0.673208
1.63572
0.685265
0.384647
0.328523
0.83122
0.782426
0.669582
0.799617
0.176853
1.25771
1.6077
1.47541
1.00019
1.61215
0.0709561
0.219974
0.722784
0.0513884
1.57681
0.980024
0.345011
1.71712
1.81785
1.05824
0.130983
1.22642
2.2805
0.195715
1.45611
0.397479
0.70132
1.73098
2.29862
1.48787
0.987525
0.600815
0.934242
0.59596
0.962535
0.742048
3.08128
0.748557
1.63199
0.662558
1.35329
2.6093
0.147815
0.0103787
1.11873
0.253816
0.326165
1.22156
1.73532
2.01519