/*--------------------------------*- C++ -*----------------------------------*\
| =========                 |                                                 |
| \\      /  F ield         | OpenFOAM: The Open Source CFD Toolbox           |
|  \\    /   O peration     | Version:  v2012                                 |
|   \\  /    A nd           | Website:  www.openfoam.com                      |
|    \\/     M anipulation  |                                                 |
\*---------------------------------------------------------------------------*/
FoamFile
{
    version     2.0;
    format      ascii;
    class       volScalarField;
    location    "300";
    object      aU;
}
// * * * * * * * * * * * * * * * * * * * * * * * * * * * * * * * * * * * * * //

dimensions      [0 0 0 0 0 0 0];


internalField   nonuniform List<scalar> 
65536
(
0.000375034
0.00132439
0.00263448
0.000952824
0.00171531
0.00244078
0.000539578
0.00173314
0.0014004
0.00153647
0.000887944
0.00232085
0.00262696
0.00110534
0.00145097
0.00229026
0.00268479
0.00147216
0.00111727
0.00203673
0.00196868
0.00267352
0.0030057
0.00241176
0.00145071
0.00360977
0.00474553
0.00509626
0.00304365
0.00357777
0.00282935
0.00218215
0.00359649
0.00451334
0.00356395
0.00147911
0.00371661
0.00205905
0.00318971
0.0036344
0.00487401
0.00630002
0.00112721
0.00369789
0.00448251
0.00322855
0.00251618
0.012059
0.0114555
0.00345546
0.00733572
0.0123685
0.0075962
0.00429242
0.00994201
0.0102116
0.00177055
0.0066141
0.00903889
0.00671047
0.00153454
0.0104849
0.012834
0.0099743
0.00139547
0.0122899
0.0128015
0.0107806
0.00618218
0.00604638
0.0125509
0.0104221
0.00478541
0.00308245
0.00655669
0.00855887
0.00929202
0.00767591
0.0065453
0.0084468
0.0113634
0.010959
0.00736918
0.00640351
0.00769463
0.00709755
0.00566432
0.00637197
0.00545906
0.00494444
0.00427436
0.00305347
0.0027679
0.00147827
0.00141792
0.00122823
0.000656841
0.000350452
0.000313381
0.000354482
0.000862736
0.000476465
0.000300531
0.000179631
8.8627e-05
0.000118622
0.000285979
0.000289813
0.000721897
0.000503191
0.000447316
0.000455497
0.000370455
0.000252375
0.000268031
0.00067988
0.000948254
0.00104679
0.000817972
0.000682906
0.000449728
0.000196822
0.000561143
0.000620994
0.000443161
0.000631129
0.00114589
0.000549703
0.000673326
0.000612853
0.000528354
0.000846811
0.0010392
0.000628846
0.000668376
0.00047565
0.000389138
0.000281207
0.000263725
0.000157269
0.000691494
0.000267358
0.000876346
0.000398734
2.88264e-05
0.000268292
0.000286777
0.000535362
0.000530618
0.000340835
0.000316606
0.000389777
0.000564496
0.000793249
0.000840816
0.000505811
0.000423313
0.000261664
1.52533e-05
0.000130546
0.000371608
0.000823099
0.00021946
0.000799843
0.000867297
0.00102977
0.000458089
0.000257074
0.000406682
0.000846813
0.000717366
0.000304543
0.000136341
0.000156007
0.000391971
0.000442012
0.000586731
0.000665897
0.000875292
0.00025219
0.000685367
0.000446523
0.000448146
0.000568398
5.85757e-05
0.000535449
0.000852922
0.000714681
0.000555223
0.000629521
0.000618237
0.000756989
0.000496552
0.000536306
0.000338897
0.000186013
0.000478957
0.000789511
0.000855824
0.00070776
0.000412947
0.000523562
0.000159872
0.000534712
0.000898602
0.00094987
0.000825843
0.000531619
0.000759905
0.000428324
0.000118832
6.14884e-05
0.000176588
0.000530541
0.00075177
0.000837077
0.000435505
0.000789799
0.000680522
0.000682753
0.000596464
8.74911e-05
0.000365984
0.000164078
0.000398168
0.00048884
0.00072013
0.000398457
0.000140265
0.000229285
0.00026858
0.000560777
0.0010635
0.000865244
0.000669157
0.00046137
0.000229786
0.000650811
0.000476547
0.000524401
0.000389491
0.00100428
0.00040895
0.000628136
0.0008465
0.000806878
0.000856395
0.000144135
0.000610995
0.000602248
0.000621282
0.000780746
0.000394382
0.000787322
0.000663689
0.000851916
0.000654564
0.000398036
0.000136694
0.000541401
0.000516847
0.000801973
0.000493822
0.000604667
0.000115023
0.000348613
0.000202285
0.000431172
7.81624e-05
0.000578474
0.000428993
0.000822969
0.000672892
0.000469443
0.000129503
0.000163146
0.000144178
0.000487799
0.000599115
0.000394685
0.000669456
0.000179885
0.000545316
0.000730502
0.000600598
0.00064341
0.000680512
0.000643425
0.000751392
0.000147185
0.000430426
0.000514826
0.000663337
0.000426537
0.000321441
0.000450101
0.000481559
0.000280197
0.000676688
0.000387333
0.000268817
0.000355257
0.000451223
0.000430885
0.000831579
0.000668559
0.000429656
0.000244287
7.05603e-05
0.000133585
0.000201082
0.00052334
0.00101292
0.00028968
0.000528078
0.000389001
0.000840677
0.000130953
0.000492997
0.000650775
0.00062086
0.00057908
0.000382607
0.000510441
0.000390776
0.000404157
0.000359411
0.000626955
0.000279604
0.000603584
0.00107851
0.000594673
0.00022812
0.000631227
0.000291817
0.00040972
0.000334988
0.000508784
0.000227053
0.000558476
0.000460104
0.000745179
0.000418622
0.000153205
0.000447577
0.000820213
0.000485486
0.000727707
0.000273998
0.000323098
0.000566727
0.000566792
0.000417824
0.000132798
0.000146641
0.000412927
0.000476918
0.000779154
0.000833721
0.000512817
0.000309347
0.00011904
8.95786e-05
0.000136745
0.000320772
0.000307646
0.000421386
0.000189586
0.000397068
0.00044982
0.000356119
0.000447116
0.000469974
0.000634647
0.000252599
0.000271001
4.08985e-05
0.000246294
0.00041887
0.000703482
0.000636868
0.000796744
0.000295295
0.00084119
0.000807741
0.000524714
0.000181419
0.000617383
0.000607263
0.000509483
0.000592186
0.000452066
0.000573723
0.000287038
0.000138051
0.000101979
0.000287094
0.00019957
0.000617396
0.00035958
0.0005001
0.000192982
0.000619734
0.000547705
0.000920775
0.000764779
0.000258741
0.000397597
0.000323261
0.000366994
0.00032376
0.000135045
0.000379954
0.000440275
0.000661159
0.000828756
0.00031838
0.000431206
0.000369623
0.000555071
0.000504152
9.10669e-05
0.000396637
0.000584977
0.000318681
0.000573421
0.000517362
0.000766107
0.000738992
0.000557519
0.00071807
0.000899712
0.000941788
0.000231936
0.000957158
0.000368674
0.000314222
0.00041368
0.00029503
0.00054017
0.000243169
0.000638361
0.000675033
0.000433144
0.000346552
0.000252629
0.000700958
0.000529638
0.000776105
0.000114931
0.000546845
0.000745695
0.000815091
0.00112693
0.000565494
0.000166665
0.000405033
0.000656298
0.0010188
0.000549757
0.00011497
0.00016733
0.00050822
0.000582209
0.000234722
0.000717713
0.000509521
0.000338666
0.000172465
0.000479458
0.000433139
0.000547352
0.000243827
0.000350843
0.000501938
0.000362375
0.00040107
0.000384148
0.000254347
0.000211397
0.000752922
0.000974875
0.000446182
0.000463276
0.000688196
0.000545673
7.44713e-05
0.000169566
0.000579594
0.000911734
0.00031959
0.000396106
0.000919206
0.000505416
0.000297378
0.000323135
0.000655359
0.000605803
0.000628903
0.000462511
0.000650103
0.000564478
0.000794427
0.000790107
0.000631227
0.000315031
0.000780224
0.000434594
0.000506453
0.000303122
0.000214756
0.0003055
0.00024747
0.00185391
0.00060231
0.00121207
0.00126665
0.00137288
0.00202435
0.000778882
0.00106358
0.00177129
0.0029449
0.00189423
0.000927071
0.000880914
0.00110184
0.00161756
0.00172125
0.00189643
0.00103456
0.00201987
0.00246072
0.00054348
0.00192144
0.000141235
0.00198482
0.00185808
0.000894493
0.00137231
0.00280259
0.00309154
0.0038185
0.0029326
0.00195354
0.000250288
0.00164008
0.00247
0.00236835
0.0015155
0.00450406
0.00772072
0.00950222
0.0094944
0.0081507
0.00262599
0.00104366
0.000700833
0.0101515
0.00923488
0.0117886
0.00679626
0.0094336
0.00490783
0.0102487
0.0104086
0.0104953
0.0058982
0.00776262
0.0031355
0.00160915
0.00464232
0.00913258
0.00704395
0.00244139
0.00946197
0.0115245
0.00319208
0.00605354
0.00594325
0.00797442
0.0100766
0.00189848
0.00581177
0.00432714
0.00322912
0.00471918
0.00363493
0.00253427
0.0023965
0.000791555
0.0039076
0.00311869
0.00322385
0.00280524
0.00220276
0.00217577
0.00194798
0.00135123
0.00194062
0.00157881
0.00124669
0.0013413
0.00110652
0.000927202
0.000810084
0.000299307
0.00125368
0.000510424
0.000699618
9.637e-05
0.000729825
0.00031821
0.000780601
0.000315139
0.000163966
0.000125246
0.000247855
0.000159393
0.000368975
0.000213376
0.00065084
0.000402427
0.000447413
0.000362264
0.000185459
0.000458423
0.000499652
0.000880726
0.000682676
0.00092539
0.000288274
0.000434657
0.000358442
0.000322252
0.000633745
0.000600888
0.00062598
0.000635136
0.000437078
0.000150884
0.000561851
0.000877181
0.000816226
0.000102428
0.000393667
0.00051445
0.000615174
0.00033748
0.000151795
0.00031242
0.000396455
0.000233644
0.000199053
6.77881e-05
0.000563584
0.000275605
0.000200803
0.000152268
0.00062546
2.38681e-05
0.000366499
0.000424914
0.000146362
0.000240549
0.00118214
0.000399117
0.000454339
0.000387142
0.000375027
9.90102e-05
0.000440244
0.00072866
0.000584937
0.000164036
0.000664528
0.000688467
0.000110476
0.000957038
0.000990957
0.000456341
0.000580618
0.00062641
0.000292062
0.000207843
0.000374381
0.000587452
5.67449e-05
0.000266234
0.000928726
0.000205748
0.00127672
0.000240789
0.000625393
0.000803346
0.000257873
0.000379709
0.000488576
0.000599914
0.000304404
0.000430831
0.000325737
0.00117106
0.000165046
0.000366299
0.000350647
0.000413659
0.000604104
0.000565066
0.000833726
0.000740311
0.000503156
0.000574379
0.000250391
0.000344385
0.000374886
0.000769344
0.00071853
0.000531916
0.000689738
0.000400291
0.000398253
0.000870774
0.000490828
0.000628363
0.000169371
0.000531481
0.000771071
0.00130885
0.000293794
0.000425967
0.000729651
0.000382338
0.000486649
0.000126321
0.000277261
0.00034639
0.00117593
0.000387508
0.000799614
0.000807083
0.000488578
0.000376604
0.000727123
0.000552783
0.000887528
0.000678036
0.000633434
0.000231542
0.000177491
0.000588627
0.000155306
0.00108651
0.000559094
0.000564039
0.000681979
0.000752408
0.00139754
0.000474521
0.00150951
0.000222543
0.000460688
0.000783979
0.000180086
0.000953377
0.000360516
0.00127109
0.00032611
0.000670372
0.000471271
0.0009069
0.000329587
0.00086842
0.000545766
0.000775712
0.000304575
0.000885656
0.000107959
0.000424434
0.000871286
0.000886528
0.000211456
0.000695504
0.000364253
0.000821008
0.000364522
0.000511612
0.000761971
0.000522471
7.6437e-05
0.000712653
0.00113838
0.000738166
0.000591603
0.00036234
0.000517939
0.000684818
0.000252896
0.000785909
0.00107983
0.000573423
0.00127747
0.000571433
0.000838223
0.000895249
2.98046e-05
0.000502268
0.000700872
0.000114303
0.000144806
0.000141482
0.000341357
0.000603701
0.000356135
0.000593401
0.000269787
0.000532229
0.000807658
0.000343567
0.000222707
0.000311489
0.000264014
0.000153887
0.00089523
0.000613855
0.00139951
0.000442832
0.000204902
0.000226972
0.00114142
0.000693968
0.00113078
0.000768698
0.00059702
0.000429009
0.000931645
0.000858824
0.000208408
0.000480636
0.000423809
0.00109525
0.00099933
0.000582687
0.00111608
0.000843132
0.000339128
9.65532e-05
0.000388589
0.00102935
0.000566277
0.000571026
0.000682161
0.00078073
0.000112067
0.000680935
0.000862558
0.000993307
0.000603972
0.00162982
0.000174788
0.000426942
0.000446807
0.00010043
0.000442483
0.00039828
0.000327022
0.000490803
0.000540139
0.000800827
0.0011755
0.000214217
7.79162e-05
0.000565076
0.000658705
0.000232891
0.000468174
7.10355e-05
7.22481e-05
0.000444723
0.00052844
1.43555e-05
0.000533821
0.000722906
0.000931967
0.000991446
0.000443498
0.000189468
0.000138773
0.000232664
0.000133454
0.000769336
7.96235e-05
0.000974438
0.000203803
0.000592459
0.000635807
0.000619846
0.000228868
0.000863128
0.000341147
0.000222015
0.000467319
0.000429342
0.000896558
0.00131189
0.000623191
0.000178203
0.000581089
0.000456988
0.000342041
0.000171517
0.00072992
0.000190817
0.00047522
0.000593563
0.000863614
0.000229237
0.000685003
0.000899842
0.00044439
0.000435217
0.000512294
0.00105447
0.000741442
0.000687685
0.000238526
0.000729936
0.000649955
0.000759157
0.000252166
0.000483377
0.000154238
9.76011e-05
0.00080245
0.000405985
0.000315484
0.000180653
0.000629746
0.000748994
0.00059194
0.000727121
0.000187515
0.00017245
0.000388303
0.000529846
0.000556617
0.00106225
0.000821839
0.00037938
0.000837849
0.00097642
0.000293353
0.000842726
0.000105061
0.000524893
0.000240009
0.000142619
0.000298802
8.14057e-05
0.000644879
0.000546358
0.000250221
0.00034355
0.000449795
0.000907097
0.000550439
0.000355476
9.4904e-05
0.000326231
0.000926204
0.000371317
0.00070627
0.000451609
0.000255941
0.000822739
0.000834523
0.000600848
0.000431484
0.000804443
0.000141086
0.000221661
0.000200628
0.000881156
0.000784863
0.000466539
0.000657595
0.000844649
0.000344252
0.000224328
0.000101931
0.00130276
0.000886341
0.0005953
0.00128867
0.00107878
0.00137914
0.000782648
0.000523296
0.000542642
0.000442257
0.00077083
0.00062459
0.00112931
0.00115816
0.000649914
0.000812524
0.000588888
0.000646842
0.000155973
0.000844733
0.000326521
0.000840582
0.000444944
0.00092212
0.0011995
0.00088412
0.000932635
0.000644429
0.000691512
0.000824526
9.74505e-05
0.000375134
0.00090742
0.000945021
0.000897902
0.000911587
0.00199198
0.000337091
0.000654824
0.001098
0.000571885
0.00237759
0.00186423
0.00211361
0.0009055
0.00299632
0.000798506
0.00105501
0.00300617
0.00170294
0.00100397
0.00211945
0.00332916
0.00313982
0.00198153
0.00279335
0.00184895
0.00319271
0.00240485
0.00200911
0.00149584
0.0012326
0.000574722
0.00124457
0.00207081
0.00196963
0.00167833
0.00080235
0.00180934
0.00291657
0.00335762
0.00545847
0.00733096
0.00481801
0.00156628
0.00509463
0.00851034
0.00499345
0.00213468
0.00500375
0.0113431
0.0019367
0.010735
0.00510571
0.0115516
0.00118271
0.00934991
0.0113203
0.00267453
0.00713315
0.00302985
0.00700478
0.0144877
0.0158575
0.00902225
0.00189815
0.00352788
0.00488661
0.010246
0.00686687
0.00428102
0.0108931
0.00861704
0.00253971
0.00427279
0.00160621
0.005204
0.00404596
0.00317177
0.00182296
0.00137583
0.00289197
0.00169727
0.00379501
0.00155355
0.0023311
0.00227307
0.00160606
0.000930595
0.0015702
0.00089719
0.000718914
0.00140614
0.00116219
0.00116736
0.00108814
0.00106762
0.000588811
0.000422678
0.00122658
0.000416924
0.000663638
0.000126767
0.000776496
8.9014e-05
0.000721113
0.000262427
0.000166425
6.85405e-05
0.000375711
6.09278e-05
0.000412376
0.000175246
0.000496611
0.000244725
0.000258926
0.000454328
0.00038352
0.00028335
0.000765815
0.000436942
0.00118676
0.000249687
0.000507909
0.000182281
0.000320543
0.000453385
0.000927487
0.000884945
0.000515099
0.000807179
0.0004525
0.000275699
0.000198232
0.000877901
0.000234812
0.000221399
0.000287282
0.000290024
0.000751396
0.000270332
0.000123832
0.000239524
0.000635011
2.35773e-05
0.000150479
0.000147073
0.000358127
0.000587203
0.000474997
0.000547172
0.000784247
0.000466281
0.000489599
0.000368765
0.000315699
0.000781586
0.00112985
0.000558688
0.000353932
0.000447508
0.000778916
0.000415099
0.000410262
0.000616349
0.000827573
0.00010153
0.000464633
0.000720269
0.000750527
0.00127602
0.000896752
0.000350329
0.000518666
0.000851767
0.000237926
0.000258644
0.000770508
0.00107315
0.000629445
0.000770211
0.000632269
0.00134394
0.000680077
0.00119492
0.000542449
0.000308658
0.000852735
6.96356e-05
8.69486e-05
0.000903161
0.000526463
0.000251815
0.000365512
0.000977414
0.000620346
0.000310678
0.000625057
0.000870801
0.000982132
0.000425269
0.000770109
0.00075941
0.000474424
0.00073024
0.000561451
0.00023342
0.00100556
0.000589772
0.000506674
0.000446612
0.000366612
0.000724203
0.000961797
0.000568132
0.000478961
0.000504695
0.000535564
0.000595238
0.000900702
0.00149158
0.00112403
0.000346837
0.000493838
0.000666289
0.000358182
0.000298184
0.000587282
0.000847069
0.000770744
0.00146125
0.00107339
0.000759758
0.0011697
0.00040767
0.000983178
0.000332997
0.000741502
0.000837546
0.000806558
0.000771388
0.000642959
0.000415146
0.000821709
0.00116631
0.00152168
0.00121682
0.00076177
0.000884914
0.00148822
0.00198123
0.00133809
0.00130819
0.000558798
0.0007959
0.000998972
0.000817952
0.00144449
0.000702166
0.00110118
0.000388458
0.000767837
0.00106834
0.00129036
0.000953625
0.000986497
0.000782246
0.000963488
0.000746392
0.000802567
0.000740903
0.00126827
0.00111142
0.00111519
0.000133978
0.00072638
0.000456967
0.000747324
0.0011231
0.000718094
0.000687283
0.000748456
0.000892434
0.00132383
0.00124815
0.000687011
0.000804063
6.31008e-05
0.000271379
0.000847545
0.000821986
0.000792051
0.00160937
0.00116566
0.000669025
0.00111949
0.000961739
0.00101817
0.000562778
0.000861436
0.000507619
7.3269e-05
0.000180202
0.000279909
0.00036217
0.000284901
0.000876929
0.000430608
0.00110726
0.000506499
0.000488332
0.000205767
0.000664882
0.000266798
0.000574595
0.0010401
0.00109823
0.001109
0.0010763
0.00013474
0.000968206
0.00125049
0.00182984
0.00128557
0.00076734
0.000801053
0.00117956
0.00112049
0.00107935
0.000901827
0.000603796
0.000279008
0.000208024
0.00168703
0.00127683
0.00125631
0.00050952
0.000633806
0.000113427
0.000853106
0.00102928
0.000924366
0.00124552
0.000871194
0.000808176
0.000834211
0.000663777
0.000525726
0.000899133
0.00177044
0.00114184
0.00115205
0.000538971
0.000401478
0.000427625
0.000245699
0.000421696
0.000626102
0.000459404
0.000689472
0.0013649
0.00105197
0.000823472
0.000306944
0.000448853
0.000783577
0.000188901
0.000240633
0.000256348
0.000311024
0.0003495
0.000345452
0.000655326
0.000363352
0.000630974
0.00136518
0.000871075
0.000843962
0.00012774
0.000142443
0.000190889
0.000892735
0.000557072
0.000437033
0.000743147
0.000886301
0.000436802
0.000582009
0.000504418
0.00109184
0.00104068
0.00106309
0.000373607
0.000208386
0.000579759
0.00117068
0.00105874
0.00111137
0.00036689
0.000950009
0.000748454
0.000432839
0.000705853
0.000730991
0.000860488
0.000850019
0.0013505
0.00111299
0.000871756
0.00103342
0.00101948
0.000385595
0.000647315
0.00116741
0.00127212
0.000705836
0.000826502
0.000631254
0.000775055
0.000769631
0.000865747
0.000492013
0.00032226
0.000547492
0.000376204
0.000169009
0.00048269
0.000753032
0.000736103
0.000394366
0.000593535
0.000768395
0.000488743
0.000679222
0.000258317
0.000430504
0.000512288
0.00133688
0.00165005
0.00136295
0.00121556
0.00136797
0.0012779
0.000489426
0.000522993
0.00057993
0.000381456
0.000411251
0.000301392
0.000318681
0.000524377
0.000554539
0.000580781
0.000500258
0.000166396
0.000884639
0.000652282
0.000398454
0.000172728
0.000275187
0.000381476
0.000733357
0.00105957
0.000739709
0.000986901
0.00103049
0.000843249
0.00103823
0.00118599
0.000182665
0.000596623
0.000734387
0.000324126
0.000232751
0.000891002
0.000658672
0.00119273
0.000757516
0.000596394
0.000863306
0.0002209
0.000798594
0.00176598
0.00108704
0.000922049
0.00223508
0.00225132
0.0016584
0.000690338
0.000979328
0.000781064
0.000124702
0.000656668
0.000733324
0.00122307
0.00188511
0.00111796
0.000881892
0.000427642
0.000563629
0.000424338
0.000742355
0.00108181
0.000649586
0.000233156
0.00134806
0.000938041
0.000755691
0.000488276
0.00132326
0.000922883
0.0011294
0.000701362
0.000638285
0.00186659
0.00228676
0.000141817
0.000771559
0.000845359
0.00126289
0.000868099
0.000978285
0.00169086
0.00201179
0.00114349
0.00157878
0.00259851
0.00202201
0.000727396
0.00107273
0.00127852
0.00185127
0.002167
0.00124382
0.00105144
0.000878096
0.00229016
0.000714236
0.00211378
0.00038816
0.000963353
0.000517244
0.000808901
0.00185847
0.00226141
0.00187975
0.00145049
0.00344327
0.00161281
0.000775737
0.00152795
0.00208984
0.00136768
0.0010726
0.00105946
0.0046567
0.00697031
0.00581876
0.00242012
0.0020127
0.00123618
0.00602316
0.00685329
0.00206445
0.00754641
0.00420382
0.00575317
0.0087097
0.00295662
0.00403452
0.0094942
0.0106172
0.00542815
0.0183002
0.0161972
0.0127663
0.0139494
0.00796354
0.00560302
0.00705279
0.00251023
0.0050518
0.00893698
0.00708949
0.00995979
0.00434302
0.00682435
0.00441409
0.00259363
0.00217101
0.00294474
0.000785408
0.00261344
0.00156062
0.00301583
0.00243572
0.000437542
0.00172349
0.00149767
0.00113929
0.00100744
0.0010932
0.000970004
0.000544075
0.00154052
0.00104721
0.000848651
0.00119011
0.000828765
0.000638311
0.000745584
0.000985186
0.000278226
0.000468251
0.0002968
0.000584537
8.8185e-05
0.000608312
0.000215282
0.000282034
0.000205528
0.00027733
0.00012553
0.000418894
0.000219367
0.000273062
0.00043412
0.000369565
0.000629962
0.000698932
0.000195881
0.000218893
0.00103048
0.000812822
0.000771987
0.000368749
0.000436216
0.000274339
0.000926414
0.000884362
0.000977806
0.00108129
0.000309021
0.000679992
0.000416279
0.000401392
0.000230243
0.00041171
2.88967e-05
8.04514e-05
0.000551687
0.000396097
0.000441758
0.000183515
2.59406e-05
0.00066406
0.000217841
0.000200412
0.000232522
0.000181306
0.000857428
0.000587528
0.00122521
0.00071894
0.00095274
0.000621509
0.000570511
0.000852555
0.00109237
0.000824897
0.00037805
0.000835798
0.00130344
0.000847891
0.000683546
0.000350037
0.0012212
0.00104777
0.000321998
0.000231613
0.000642701
0.00112233
0.00162503
0.0009879
0.000209912
0.000835042
0.00100611
0.000484228
0.000170711
0.00160997
0.000852806
0.00130555
0.0004789
0.00014599
0.00130011
0.000399136
0.00107625
0.000413595
0.000241029
0.000587003
0.00029494
0.000377398
0.000433645
0.000879464
0.000234413
0.000462012
0.000534155
0.00104354
0.000652758
0.000801664
0.000867732
0.00148078
0.000301651
0.000634613
0.000717762
0.000388575
0.00108858
0.000583954
0.00151619
0.000731111
0.000907962
0.00023901
0.000423211
0.000147104
0.000830825
0.00102985
0.000901951
0.000650815
0.000193482
0.000523892
0.000981655
0.00262088
0.00100613
0.00153668
0.00112834
0.000879663
0.000649733
0.000267265
0.000633152
0.00073388
0.00114588
0.000795781
0.00157859
0.00132819
0.000500523
0.00127002
0.00147111
0.00176638
0.000920522
0.000210009
0.00107541
0.00087037
0.00151184
0.000839182
0.000964481
0.00118106
0.00167711
0.00193535
0.00183413
0.00126474
0.00128362
0.000776716
0.00290817
0.000231943
0.00187128
0.000919955
0.000724014
0.00165027
0.000707366
0.00171795
0.00131853
0.00108871
0.00123919
0.00163339
0.000738041
0.00192774
0.00186379
0.00118541
0.000839444
0.00129686
0.000268309
0.00065485
0.00148113
0.000695809
0.00225423
0.000818727
0.00116766
0.000510839
0.000522254
0.000934144
0.00152714
0.000227657
0.00109496
0.000686662
0.00114176
0.00116487
0.00154452
0.000419765
0.000995648
0.000284564
0.000386497
0.000887863
0.000515104
0.0014213
0.00126114
0.00107926
0.000573261
0.00128724
0.00112201
0.00138332
0.00112148
0.000656027
0.000969252
0.000148868
9.98174e-05
0.000448925
0.000832137
0.00109666
0.000958327
0.000517059
0.000651771
0.00170488
0.000871319
0.000209028
0.000367023
0.00121011
0.000855405
0.00219323
0.00107356
0.00179009
0.00135276
0.000708594
0.00147976
0.000785917
0.00292169
0.000739709
0.001183
0.000703854
0.00171858
0.000859162
0.00127251
0.00110916
0.000199073
0.000486928
0.000800822
0.00139321
0.00186375
0.000730116
0.000998437
0.00072208
0.000157883
0.00116129
0.000786142
0.00130321
0.00165833
0.000839121
0.00121559
0.00117032
0.000509757
0.000256407
0.00103457
0.00176978
0.00047399
0.00160233
0.000538233
0.00117347
0.000662231
0.000229938
0.000166238
0.000742783
0.00106492
0.000592082
0.0018013
0.00142077
0.000847437
0.000262157
0.000423829
0.000712522
0.000503607
0.000143665
0.000260475
0.000554526
0.000182872
0.000181707
0.000684881
0.00028192
0.000679027
0.0012997
0.000911839
0.000801908
0.000104145
0.000132742
0.000663922
0.000837312
0.00147845
0.000909383
0.00134659
0.000573257
0.000814874
0.000234785
0.000960665
0.00140704
0.00200815
0.00109593
0.00146251
0.000664239
0.000445917
0.00105776
0.000376445
0.00166989
0.00126486
0.000652104
0.00130676
0.000250432
0.00120284
0.000580642
0.00176741
0.00145696
0.00124661
0.00285846
0.00109589
0.00241298
0.000931338
0.000779891
0.000685491
0.00214816
0.000880854
0.000844368
0.000898703
0.00110778
0.00110563
0.000422895
0.00116283
0.0003944
0.000803901
0.000735802
0.000743628
0.000755499
0.00099254
0.00080896
0.00108389
0.000774175
0.000791483
0.000708525
0.000310681
0.000242888
0.000634603
0.000510264
0.00170484
0.00190946
0.00110044
0.00306869
0.0015833
0.000840675
0.0016477
0.000610212
0.00093412
0.00062246
0.00119747
0.00056324
0.000248808
0.000565705
0.000648587
0.0002638
0.000294356
0.000911435
0.000280309
0.000605807
0.00109301
0.000928583
0.000509722
0.000106245
0.000465437
0.000798449
0.00184909
0.00192301
0.00143975
0.00200895
0.000560598
0.0015724
0.00106778
0.000445231
0.000285451
0.00108919
0.0005383
0.000539562
0.00135239
0.000641666
0.00153197
0.000441286
0.000819232
0.000814779
0.00018384
0.00147942
0.00142209
0.00251451
0.00231819
0.000814675
0.00432074
0.000878571
0.000760407
0.000886479
0.00105696
0.000473602
0.000215549
0.00109737
0.000769023
0.00290067
0.00120585
0.00115697
0.000818694
0.0012387
0.00135353
0.00125095
0.00185248
0.00050363
0.000452883
0.00100792
0.00111874
0.000644
3.10413e-05
0.0018792
0.00064969
0.00185698
0.000695255
0.00260566
0.00225896
0.00385963
0.000767362
0.000513605
0.000976742
0.000821651
0.00120249
0.00102711
0.00149073
0.0011152
0.00268027
0.00232504
0.00210995
0.000990484
0.00144669
0.00139015
0.000683715
0.00150521
0.00113755
0.00194431
0.00216502
0.00120304
0.000939776
0.000868746
0.000742514
0.00146499
0.00103979
0.00297166
0.00496518
0.00402808
0.00157884
0.00256889
0.00426475
0.00113386
0.00153411
0.00170381
0.00166474
0.000996242
0.00221487
0.00392245
0.00206852
0.00231514
0.0035547
0.0054514
0.00306033
0.00118674
0.00122252
0.00547139
0.00644802
0.00315436
0.00645017
0.00575412
0.00191958
0.00714462
0.0117373
0.0117041
0.0054354
0.017476
0.00335247
0.0206869
0.0145674
0.010087
0.01483
0.00249462
0.00834881
0.00371178
0.00313402
0.00173575
0.00696022
0.00428457
0.00823317
0.00869912
0.00634289
0.00128212
0.00101434
0.0035757
0.00467985
0.00330605
0.00150165
0.00243191
0.00330471
0.00302887
0.0015375
0.00108265
0.00198755
0.00159736
0.00105953
0.00127359
0.00100828
0.000722649
0.00186419
0.00124627
0.000861249
0.0013827
0.000781191
0.000618897
0.00103101
0.000757747
0.000311094
0.00021922
0.000298882
0.000477252
0.000366768
0.000481771
0.000318766
0.000418624
0.000572716
0.000266137
0.000259578
0.000279158
0.00040485
0.000111039
0.000644723
0.000986068
0.000423228
0.000877194
0.000391282
0.000264024
0.00119283
0.000494816
0.00114221
0.000314053
0.000683515
0.000690325
0.00133267
0.000821786
0.000680825
0.00129446
0.000339702
0.000960117
0.000438089
0.000495827
0.000601988
0.000261799
0.000307193
0.000448928
0.000518112
0.000141355
0.000548937
7.93758e-05
7.30737e-05
0.000415145
0.000518027
0.000343899
0.000450219
0.000378457
0.00118263
5.62143e-05
0.00176376
5.61111e-05
0.00165886
0.000936857
0.00138636
0.000780133
0.00159921
0.000924734
0.000532895
0.000549658
0.00171471
0.000723999
0.00137428
0.00018025
0.0017689
0.000246028
0.00142765
0.000944907
0.000463531
0.00145601
0.00220439
0.000919888
0.00109573
0.00127878
0.00159624
0.000849506
0.00111609
0.00175571
0.000742734
0.00170275
0.000708867
0.00029822
0.00116308
0.000764633
0.000769935
0.000496491
0.000348724
0.00106416
0.00103467
0.000830437
0.000782154
0.000922895
0.000591546
0.00114725
0.00064382
0.000760649
0.00119492
0.00125583
0.000785006
0.00164507
0.000380744
0.00110594
0.00119475
0.000417675
0.00142081
0.00136731
0.0016811
0.000704594
0.00128309
0.00041204
0.000616592
0.000304947
0.000924196
0.000714952
0.00129749
0.000587148
0.000570556
0.00028412
0.00209435
0.00211122
0.00196443
0.00121478
0.00148741
0.00140558
0.000810865
0.000698856
0.000318517
0.00108174
0.000935021
0.000718642
0.00158022
0.00170078
0.000199678
0.00159376
0.00254447
0.00140753
0.00126971
0.000902578
0.00105565
0.000956408
0.00152253
0.00153442
0.000707784
0.00111117
0.00166206
0.0023619
0.00193633
0.00147536
0.000770935
0.00181603
0.00243268
0.00160079
0.00151668
0.00135355
0.000804406
0.00237776
0.00101214
0.00208035
0.00166904
0.00112725
0.00165767
0.00173453
0.00118332
0.00186572
0.00188508
0.00126138
0.000860835
0.00111106
0.000581022
0.000179653
0.00160313
0.00113148
0.00250543
0.000767534
0.00134179
0.000246651
0.000840804
0.00140145
0.00119955
0.00116547
0.00093506
0.000640455
0.00132937
0.00093451
0.00159012
0.000557687
0.000908783
0.000787174
0.000316884
0.000936589
0.000768942
0.00149305
0.000978429
0.00131969
0.000628872
0.00154639
0.00122013
0.00132616
0.00169863
0.000541727
0.00120152
0.000282408
0.00106453
0.000745914
0.000730071
0.00186214
0.000522748
0.000576077
0.00183908
0.00184272
0.000528601
0.000553156
0.000666535
0.0013995
0.00131031
0.00236445
0.00159128
0.00177497
0.00194303
0.00123694
0.00147803
0.00185183
0.00286295
0.00158096
0.00115898
0.000510781
0.00184296
0.000750784
0.00149876
0.00107303
0.00126418
0.000574357
0.000567
0.00111066
0.00187572
0.00135014
0.000635718
0.000630686
0.00058966
0.00148966
0.00079356
0.00173158
0.00204183
0.000813212
0.00174376
0.00180239
0.001008
0.000431354
0.00116926
0.00145716
0.000765801
0.00172685
0.000301925
0.00129121
0.000638386
0.000456218
0.000799011
0.00133481
0.000638336
0.00169736
0.00141395
0.00218245
0.000645397
0.000491784
0.000664219
0.000786729
0.000723855
0.000505172
0.000599403
0.000463434
0.000343376
0.000530353
0.000619216
0.000435335
0.00107998
0.00125614
0.000886006
0.000998241
0.000422865
0.000424504
0.000531464
0.0012531
0.00178853
0.000170125
0.00185807
0.000405711
0.000978958
0.000687681
0.00123777
0.00167948
0.00234018
0.00142417
0.00165938
0.000615097
0.000436553
0.00107622
0.000569805
0.00194418
0.0017311
0.000684775
0.00164366
0.000405775
0.00156422
0.00136504
0.00232348
0.0018812
0.00190913
0.00312494
0.00138325
0.00294113
0.000177027
0.000782624
0.000509012
0.00251355
0.00192145
0.000552449
0.00077641
0.00105603
0.00130838
0.00099963
0.000972869
0.000263017
0.00105323
0.000818864
0.000730305
0.00141337
0.000773981
0.00163996
0.000728517
0.000990274
0.000895748
0.000803675
0.000735664
0.00035
0.000370813
0.00121773
0.00180668
0.00180232
0.00236445
0.00259494
0.0021222
0.00068601
0.00261212
0.000974057
0.00130072
0.000928866
0.00110234
0.00129612
0.000540563
0.00069569
0.000586834
0.000363638
0.000375732
0.00097513
0.000425172
0.00137837
0.00115287
0.000260251
0.000968394
0.000720932
0.00104052
0.00126761
0.00198407
0.00291348
0.00122494
0.00255645
0.000303149
0.00170654
0.00122173
0.000529049
0.000315924
0.000795183
0.00109524
0.00112467
0.00136254
0.000727812
0.00174833
0.000873991
0.000606943
0.000781173
0.000317877
0.00179789
0.000947371
0.00303088