/*--------------------------------*- C++ -*----------------------------------*\
| =========                 |                                                 |
| \\      /  F ield         | OpenFOAM: The Open Source CFD Toolbox           |
|  \\    /   O peration     | Version:  v2012                                 |
|   \\  /    A nd           | Website:  www.openfoam.com                      |
|    \\/     M anipulation  |                                                 |
\*---------------------------------------------------------------------------*/
FoamFile
{
    version     2.0;
    format      ascii;
    class       volScalarField;
    location    "300";
    object      he_filtered;
}
// * * * * * * * * * * * * * * * * * * * * * * * * * * * * * * * * * * * * * //

dimensions      [0 2 -2 0 0 0 0];


internalField   nonuniform List<scalar> 
65536
(
-6571.11
-6571.21
-6571.79
-6572.6
-6573.83
-6575.49
-6577.59
-6580.32
-6584.05
-6587.35
-6592.15
-6598.06
-6603.54
-6607.77
-6612.19
-6617.15
-6621.6
-6626.34
-6631.29
-6636.56
-6642.25
-6648.73
-6656.59
-6664.96
-6672.8
-6680.04
-6686.52
-6692.24
-6697.89
-6703.98
-6711.01
-6719.3
-6728.21
-6737.18
-6745.73
-6753.67
-6760.59
-6766.74
-6770.8
-6772.48
-6777.93
-6785.59
-6794.34
-6799.37
-6800.15
-6797.61
-6800.53
-6806.17
-6801.84
-6794.82
-6787.92
-6778.17
-6765.75
-6747.27
-6714.35
-6686.13
-6675.55
-6646.74
-6604.24
-6567.85
-6510.54
-6437.89
-6374.86
-6313.57
-6219.26
-6123.88
-6026.56
-5921.88
-5805.24
-5685.27
-5550.95
-5407.87
-5183.61
-5058.76
-4915.03
-4609.71
-4165.74
-3783.26
-3446.8
-3165.48
-2875.58
-2520.66
-1967.97
-1369.03
-918.498
-554.565
-354.95
-182.68
-8.40509
172.872
350.522
514.165
656.14
774.918
868.15
942.189
993.89
1030.79
1055.91
1070.27
1079.78
1081.55
1080.67
1079.33
1074.33
1074.51
1074.46
1075.34
1075.24
1074.23
1070.91
1071.82
1071
1072.04
1073.61
1074.08
1073.55
1071.98
1069.99
1067.38
1065.35
1064.89
1064.65
1066.32
1072.02
1078.58
1087.32
1095.02
1101.96
1106.93
1110.8
1115.32
1118.42
1122.26
1123.63
1123.46
1120.82
1116.02
1110.81
1106.06
1098.34
1091.42
1086.55
1082.94
1080.23
1079.8
1078.75
1078.54
1079.44
1079.88
1080.58
1080.89
1081.71
1082.23
1083.8
1085.1
1084.78
1083.98
1082.18
1080.82
1078.66
1078
1076.93
1077.04
1078.33
1080.61
1082.56
1083.6
1084.56
1084.96
1086.39
1087.19
1087.23
1086.37
1085.73
1086.46
1092.59
1100.18
1108.19
1116.09
1121.87
1128.45
1133.14
1134.09
1132.62
1129.09
1122.81
1113.91
1105.91
1097.05
1092.28
1086.87
1084.38
1083
1078.15
1076.82
1074.03
1073.92
1073.01
1073.87
1077.15
1080.36
1083.45
1086.87
1089.91
1090.64
1091.07
1090.33
1088.62
1088.68
1086.73
1085.5
1082.5
1080.33
1079.82
1080.73
1079.44
1080.86
1080.66
1079.35
1077.12
1072.53
1066.25
1061.8
1060.73
1060.26
1065.88
1070.29
1076
1080.8
1084.25
1087.42
1089.44
1091.6
1092.44
1091.74
1089.4
1088.56
1087.78
1089.88
1091.61
1093.54
1093.53
1095.85
1100.35
1104.17
1108.3
1112.48
1115.23
1118.73
1121.55
1123.35
1125.98
1127.3
1128.54
1129.23
1129.11
1128.65
1127.14
1125.95
1122.94
1118.22
1111.44
1103.45
1097.16
1086.2
1079.61
1073.08
1069.37
1065.01
1065.27
1066.91
1070.5
1074.75
1078.54
1082.38
1087.83
1092.91
1097.74
1099.79
1103.47
1106.02
1105.01
1103.26
1099.16
1094.48
1091.52
1086.23
1084.9
1082.49
1078.94
1074.69
1070.39
1068.22
1068.19
1066.01
1064.28
1062.11
1057.58
1051.78
1045.41
1040
1036.73
1031.19
1027.15
1028.8
1030.38
1036.42
1040.83
1045.89
1050.88
1054.55
1055.56
1055.26
1053.69
1056.09
1055.74
1058.37
1061.71
1064.4
1066.77
1067.57
1067.85
1066.15
1063.44
1061.91
1059.74
1057.41
1058.02
1057.26
1061.4
1064.9
1070.59
1074.72
1078.81
1081.17
1084.72
1087.13
1088.92
1090.92
1093.08
1095.24
1098.9
1101.14
1101.74
1101.32
1100.03
1098.75
1096.65
1095.18
1093.16
1091.22
1089.4
1089.01
1090.72
1090.75
1094.02
1096.75
1102.4
1105.62
1108.27
1109.71
1110.37
1110.52
1110.77
1111.14
1111.88
1112.89
1115.23
1116.43
1117.58
1117.11
1115.6
1114.21
1113.1
1111.93
1110.29
1110.96
1111.27
1109.56
1107.02
1103.86
1102.22
1100.89
1098.6
1096.11
1094
1095.41
1094.62
1097.69
1100.84
1102.87
1104.31
1105.17
1105.19
1102.58
1100.33
1095.77
1089.31
1081.91
1073.89
1065.54
1059.38
1056.27
1058.36
1059.42
1062.63
1067.45
1070.59
1074.62
1076.5
1081.75
1085.93
1093.22
1099.67
1107.2
1112.42
1116.1
1118.1
1119
1117.4
1114.74
1111.33
1106.46
1101.36
1096.66
1094.65
1091.85
1090.17
1092.85
1093.78
1096.98
1100.24
1102.5
1102.4
1099.64
1095.27
1091.4
1087.83
1083.93
1081.25
1082.19
1081.64
1081.68
1080.68
1083.45
1085.03
1086.65
1090.55
1096.9
1102.99
1107.24
1109.8
1113.36
1114.96
1113.84
1111.84
1108.57
1103.82
1098.46
1095.06
1091.06
1087.67
1084.42
1080.54
1078.64
1076.35
1074
1071.69
1070.55
1068.7
1067.76
1068.51
1066.08
1065.07
1063.43
1060.9
1057.89
1053.3
1051.07
1049.08
1049.78
1053.97
1056.74
1061.26
1065.42
1070.49
1075.39
1077.6
1078.54
1080.38
1080.42
1080.78
1082.19
1082.65
1082.04
1079.72
1076.93
1076.09
1077.26
1078.2
1079.21
1078.96
1077.36
1073.85
1070.29
1065.37
1063.17
1057.9
1054.28
1050.84
1050.51
-7171.79
-7172.49
-7173.32
-7174.73
-7176.49
-7178.92
-7181.32
-7184.98
-7189.58
-7193.35
-7198.17
-7203.79
-7209.1
-7213
-7217.09
-7221.76
-7225.83
-7230.22
-7234.81
-7239.78
-7245.17
-7251.2
-7258.37
-7265.96
-7273.23
-7280.17
-7286.6
-7292.63
-7298.93
-7305.81
-7313.56
-7322.2
-7331.17
-7340.17
-7348.93
-7357.28
-7364.69
-7371.07
-7373.94
-7371.55
-7368.38
-7363.04
-7359.35
-7365.09
-7374.19
-7380.43
-7370.5
-7343.52
-7322.12
-7311.52
-7307.34
-7298.32
-7288.09
-7275.39
-7266.33
-7255.49
-7224.38
-7217.22
-7163.89
-7095.07
-7063.79
-7029.78
-6987.33
-6883.22
-6786.77
-6681.23
-6585.21
-6520.65
-6346.03
-6214.38
-6115.04
-5971.28
-5705.36
-5466.15
-5221.28
-5001.94
-4661.81
-4262.62
-3905.25
-3523.22
-3167.28
-2776.69
-2315.12
-1830.07
-1389.42
-991.306
-663.204
-413.4
-184.147
21.417
210.474
379.343
523.626
639.696
731.331
795.613
854.436
890.662
913.65
929.743
929.026
936.148
933.462
922.09
924.407
919.965
924.463
928.319
930.677
930.594
933.653
922.685
928.329
933.255
934.292
935.763
934.469
933.3
930.032
925.012
919.797
914.331
918.013
925.663
931.539
941.684
947.027
953.812
959.808
965.281
971.37
975.349
982.538
981.012
985.304
985.697
983.797
979.507
968.09
952.286
950.373
947.089
944.915
939.902
934.612
926.815
932.261
939.051
941.123
940.314
939.85
937.979
934.828
941.581
943.953
944.921
945.999
944.011
944.41
939.744
939.572
935.47
934.771
936.998
939.928
942.955
945.042
944.609
941.017
940.863
944.318
948.187
949.243
946.511
942.295
943.507
949.433
960.835
970.878
975.276
987.104
988.545
990.139
996.153
996.955
989.639
977.625
966.564
953.717
954.512
947.484
947.793
940.438
930.85
939.286
933.404
935.207
926.901
931.739
935.635
936.926
940.376
943.912
947.943
947.649
950.88
950.303
947.995
944.372
933.867
938.644
939.024
942.669
940.364
935.904
929.809
939.601
939.369
941.728
938.913
931.869
927.365
924.868
918.281
907.7
913.175
911.73
925.695
935.31
941.423
943.075
940.841
948.857
952.991
952.339
948.352
945.825
940.092
946.885
947.612
949.277
947.08
953.781
956.559
959.898
966.845
971.302
970.815
975.041
978.112
980.58
986.18
986.262
988.63
988.678
985.571
982.296
978.671
981.719
981.541
982.081
975.932
969.797
959.703
940.834
942.165
931.688
922.879
912.369
917.314
916.994
922.523
927.434
932.237
938.351
945.615
948.168
953.201
954.191
964.251
963.062
961.448
963.63
959.956
955.774
950.226
941.6
947.895
942.132
939.576
937.57
932.513
928.307
922.211
913.516
919.285
921.624
919.575
916.668
909.981
904.596
895.207
881.085
880.411
881.495
873.726
880.294
880.579
894.85
907.033
913.477
915.404
915.269
914.501
914.888
902.77
910.338
913.519
916.326
922.869
925.166
928.861
926.589
925.417
926.429
921.908
916.919
914.244
904.475
910.46
906.641
917.582
925.059
935.065
939.057
946.669
945.83
946.007
947.834
950.285
953.098
960.661
959.586
962.266
964.679
962.929
961.443
957.841
956.845
952.935
949.792
946.588
944.739
940.349
934.887
944.216
946.307
960.705
961.511
966.312
967.398
968.67
968.006
968.081
968.708
967.989
967.078
969.88
970.232
974.754
975.154
976.373
978.434
976.92
974.393
972.328
975.814
970.62
967.061
968.171
966.995
966.508
961.288
956.365
954.805
952.568
951.803
942.998
952.704
955.877
960.426
964.887
963.905
960.777
958.053
962.975
961.808
957.86
952.824
941.245
927.221
917.484
910.517
910.765
906.587
917.545
924.683
923.069
925.313
921.385
928.909
930.893
945.458
950.266
962.511
966.144
972.522
976.689
979.984
979.31
978.458
976.962
970.592
965.071
959.087
960.248
953.679
952.202
949.468
941.144
947.204
955.792
960.64
964.743
963.035
959.971
956.762
945.749
938.309
940.203
944.285
938.621
938.266
937.185
941.108
934.36
938.163
946.756
954.161
954.149
956.311
962.919
973.325
974.801
974.718
977.7
973.37
967.892
964.075
961.599
953.915
949.839
947.321
944.85
943.849
935.488
934.245
932.176
934.672
931.96
931.282
925.245
916.25
924.231
924.707
924.221
919.26
913.838
911.338
903.064
904.929
904.899
899.311
909.771
917.337
928.825
932.174
933.985
936.289
932.509
923.481
926.837
936.649
941.217
944.567
941.616
940.924
940.272
936.143
936.463
938.87
940.677
939.43
935.135
929.746
924.417
922.671
910.311
913.007
908.48
903.987
891.62
-7773.57
-7774.14
-7774.73
-7775.87
-7777.32
-7779.15
-7781.15
-7783.82
-7786.46
-7789.75
-7792.26
-7795.02
-7798.13
-7801.07
-7804.14
-7807.39
-7810.72
-7814.08
-7817.81
-7822.02
-7826.74
-7831.9
-7837.25
-7842.99
-7849.08
-7855.3
-7861.62
-7868.55
-7876.34
-7884.94
-7894.19
-7903.49
-7912.74
-7921.96
-7931.52
-7941.41
-7951.13
-7959.54
-7965.76
-7971.81
-7973.03
-7971.52
-7970.49
-7976.93
-7986.88
-7995.56
-7990.98
-7971.15
-7954.63
-7946.43
-7944.16
-7935.72
-7934.96
-7922.35
-7884.73
-7860.07
-7879.09
-7871.87
-7784.97
-7736.79
-7682
-7644.72
-7651.98
-7543.68
-7433.11
-7314.33
-7186.26
-7137.14
-6955.77
-6852.55
-6665.92
-6470.39
-6235.53
-5955.41
-5734.98
-5493.96
-5197.33
-4806.02
-4414.21
-4048
-3670.38
-3286.33
-2832.75
-2310.49
-1836.02
-1426.44
-1051.84
-735.532
-483.831
-248.668
-47.2269
124.73
266.98
382.968
470.312
539.151
581.331
617.301
639.936
645.299
655.66
648.718
646.758
643.926
631.48
632.384
635.485
640.706
647.701
643.72
628.776
635.605
639.508
644.492
654.781
656.947
659.698
655.228
650.156
646.103
639.031
636.612
633.975
632.339
640.974
649.756
663.318
673.546
675.336
677.874
675.726
679.261
679.454
696.497
699.146
701.403
699.329
690.661
684.041
678.35
663.546
659.094
655.958
654.368
648.553
647.153
646.934
646.865
647.594
651.055
649.243
644.144
642.06
650.717
664.512
668.393
667.075
664.98
657.082
660.732
655.389
650.25
647.428
647.846
653.49
658.458
661.623
663.782
657.628
645.108
655.343
662.718
661.549
656.855
649.65
636.254
655.848
668.52
678.116
691.446
686.755
701.909
715.269
715.065
710.12
704.353
696.33
678.45
662.318
648.803
655.443
649.013
650.745
655.414
647.575
654.256
640.424
642.508
637.595
639.141
645.246
651.809
661.484
661.885
667.953
667.465
663.601
659.3
653.087
654.868
650.375
649.661
640.272
638.835
638.748
641.153
644.705
659.875
660.595
661.426
657.907
645.586
627.664
616.616
613.142
612.523
627.599
640.668
651.409
652.852
650.662
654.225
656.227
661.193
666.905
666.735
657.874
653.741
649.519
654
654.736
658.912
649.787
656.048
665.542
672.582
677.757
687.879
687.929
690.128
693.561
687.502
689.602
687.963
687.312
692.59
693.076
694.316
691.866
691.132
681.509
680.172
670.14
662.064
659.043
643.842
639.616
630.822
623.327
620.176
624.428
627.788
637.044
643.821
645.761
646.535
658.644
663.503
674.317
669.601
679.595
685.301
683.301
680.705
675.511
667.32
657.506
643.241
652.015
650.546
640.284
636.286
628.19
625.886
630.536
632.275
639.235
639.922
631.633
622.578
610.216
607.354
604.746
592.939
579.604
585.157
581.83
590.457
604.619
616.059
625.027
631.224
635.79
629.196
612.733
612.43
615.834
625.235
637.65
640.585
646.581
642.193
641.881
640.092
628.182
628.692
629.203
619.177
615.305
611.748
630.553
636.486
644.337
647.604
652.164
646.446
655.899
662.424
663.168
660.405
665.899
660.976
674.88
676.539
675.906
677.3
673.474
674.837
669.105
665.564
666.478
662.512
653.327
651.996
652.421
649.236
658.846
654.718
672.386
680.861
686.558
684.836
686.271
682.375
675.84
679.687
685.829
685.12
693.554
692.23
693.635
693.237
687.676
685.984
685.672
685.722
677.61
687.761
690.946
684.296
678.878
669.924
670.767
669.202
666.434
667.586
662.549
665.467
661.053
672.911
678.426
681.523
686.916
687.156
685.094
679.57
675.48
673.918
664.588
656.538
648.587
636.211
624.999
617.386
623.377
622.581
625.983
640.471
637.545
634.966
637.478
648.036
650.103
671.219
673.541
685.233
693.088
699.271
700.851
700.992
701.09
694.605
688.672
678.479
671.661
659.294
663.262
656.332
650.264
654.109
659.214
666.946
681.941
680.53
683.021
678.618
664.335
665.378
661.523
653.949
643.582
647.981
651.477
647.944
639.407
650.276
647.312
642.118
643.599
662.886
676.389
682.111
677.883
686.68
694.477
692.113
691.761
687.157
676.905
665.446
667.063
668.23
662.652
652.948
644.729
650.941
644.136
646.745
637.855
636.72
631.572
637.555
640.29
635.001
640.402
639.806
643.671
637.342
620.203
608.933
616.161
616.81
617.252
618.73
627.438
625.687
637.891
648.841
649.601
647.315
642.931
646.139
650.705
661.972
662.943
664.31
652.032
638.492
639.759
640.394
647.064
650.55
653.624
650.038
646.726
642.894
630.768
629.998
622.959
621.403
609.502
600.382
-8248.27
-8248.16
-8248.18
-8248.33
-8248.69
-8249.19
-8249.92
-8250.9
-8252.51
-8253.46
-8255.01
-8257.85
-8260.21
-8261.58
-8263.48
-8266.12
-8268.4
-8270.8
-8273.55
-8276.87
-8280.68
-8284.93
-8289.97
-8295.46
-8301.02
-8306.86
-8312.93
-8319.82
-8328.22
-8337.81
-8348.08
-8358.23
-8368.28
-8378.59
-8389.91
-8402.45
-8415.43
-8427.85
-8439.77
-8451.89
-8465.59
-8480.18
-8494.94
-8505.45
-8515.19
-8524.81
-8539.7
-8557.51
-8567.88
-8575.85
-8575.55
-8581.53
-8586.52
-8582.34
-8554.68
-8535.48
-8552.94
-8514.14
-8455.99
-8391.38
-8400.11
-8343.88
-8223.84
-8194.11
-8123.56
-8005.89
-7870.7
-7692.42
-7582.53
-7482.53
-7299.4
-7031.96
-6801.36
-6535.09
-6297.79
-6066.39
-5741.94
-5400.17
-5004.09
-4617.87
-4229.7
-3809.18
-3361.56
-2833.15
-2318.17
-1849.39
-1472.15
-1134.07
-835.484
-597.392
-381.706
-202.596
-52.3976
60.2501
134.68
165.882
228.004
261.263
271.066
275.408
251.721
269.908
255.581
211.239
214.559
221.147
243.913
262.276
268.097
268.408
258.316
217.212
252.495
280.517
287.774
291.47
283.475
283.841
276.026
266.605
251.818
228.548
236.67
240.493
258.588
276.275
288.955
297.122
303.772
294.548
286.139
292.874
308.83
316.652
333.17
337.413
331.354
318.121
291.861
248.525
261.418
248.613
266.629
270.809
256.275
220.3
256.75
274.733
275.802
258.404
272.578
268.376
226.019
264.891
278.677
289.385
293.717
289.104
291.136
283.67
283.666
276.687
271.312
271.019
277.129
286.59
296.502
292.253
271.623
231.102
281.535
300.613
300.633
288.893
263.518
209.857
270.526
299.357
306.759
300.828
317.666
322.751
325.875
337.227
343.154
335.9
307.449
278.369
235.514
260.656
263.879
264.623
260.1
231.363
263.848
263.58
264.924
231.11
253.167
255.306
273.551
281.164
277.623
286.83
283.329
282.998
286.676
277.526
254.639
212.332
245.123
256.813
259.838
246.74
247.115
216.461
266.93
275.801
286.348
280.323
267.651
256.187
251.301
229.849
182.196
211.649
198.538
251.635
276.147
285.863
276.901
239.362
279.122
297.545
294.826
281.088
263.791
231.196
266.476
278.245
275.764
261.152
258.057
255.486
280.368
300.515
310.918
298.99
290.147
303.937
306.73
313.416
310
308.502
311.73
307.508
295.623
269.977
296.662
307.914
316.14
307.589
298.526
277.938
225.289
253.129
245.005
226.612
183.78
221.179
224.133
232.119
250.81
261.12
269.167
265.337
267.804
282.2
281.027
294.076
294.137
294.843
301.436
298.12
284.537
260.151
240.651
265.151
270.162
269.537
263.044
237.555
211.474
218.192
197.833
239.222
257.454
260.483
252.004
227.081
228.265
211.009
174.227
183.696
178.781
155.06
184.066
157.562
218.002
246.525
254.852
259.81
252.788
247.615
236.341
183.111
231.594
246.356
250.581
257.525
255.942
265.912
260.332
243.953
244.369
251.179
247.829
232.261
189.612
219.256
198.26
232.715
252.736
267.301
272.53
277.791
274.029
275.858
277.261
282.087
278.203
293.852
294.988
309.51
313.421
306.308
299.043
290.571
291.93
288.854
280.527
274.887
264.702
252.89
219.496
247.279
235.468
275.65
293.827
305.111
305.233
305.705
297.285
296.75
298.987
291.191
288.451
298.374
296.455
311.627
315.809
318.222
316.518
310.09
305.111
298.608
297.842
298.81
302.43
307.798
295.238
282.427
283.017
289.061
289.05
280.878
268.225
233.159
263.347
286.787
308.79
312.525
306.262
293.592
280.532
300.764
312.384
309.489
298.98
283.234
258.217
239.657
229.339
227.339
212.423
237.45
247.285
247.471
245.66
206.604
239.885
234.004
267.044
274.463
300.113
314.531
320.776
321.58
321.934
320.679
321.341
319.334
311.097
293.892
268.144
281.548
278.684
276.921
258.671
245.765
252.11
284.487
298.665
319.146
318.37
309.233
300.494
271.575
243.079
259.101
266.564
267.286
264.474
262.309
259.682
243.148
247.51
247.239
267.29
273.515
278.079
283.68
297.686
311.037
318.023
315.603
311.538
304.902
291.456
266.742
272.316
275.588
280.596
278.521
268.444
262.923
264.895
257.4
262.497
264.165
263.8
241.651
208.894
250.595
258.389
262.272
254.156
248.299
239.684
185.154
225.131
228.686
187.351
233.667
247.508
253.54
240.829
259.033
271.531
255.066
207.087
217.783
267.012
282.688
289.595
279.805
273.715
252.745
243.728
262.478
281.514
288.695
282.843
269.045
241.734
243.439
243.167
204.766
239.978
236.799
215.114
155.838
-8678.39
-8678.3
-8678.01
-8677.83
-8677.56
-8677.45
-8677.11
-8677.39
-8677.93
-8677.64
-8677.77
-8678.11
-8678.41
-8678.37
-8678.52
-8679.17
-8680
-8680.91
-8682.07
-8683.94
-8686.46
-8689.27
-8692.41
-8696.07
-8700.57
-8705.79
-8711.53
-8719.04
-8729.24
-8741.38
-8753.87
-8765.48
-8776.77
-8788.72
-8803.04
-8820.11
-8838.03
-8855.08
-8873.18
-8891.4
-8909.36
-8926.56
-8943.26
-8962.73
-8986.02
-9009.06
-9029.08
-9043.43
-9061.62
-9080.48
-9097.63
-9120.5
-9130.95
-9143.28
-9156.68
-9175.58
-9152.13
-9129.05
-9130.37
-9109.46
-9110.84
-9035.32
-8908.08
-8850.11
-8778.03
-8659.1
-8547.63
-8335.28
-8203.47
-7937.64
-7840.92
-7604.31
-7359.38
-7136.33
-6855.25
-6592.22
-6305.93
-5950.29
-5568.04
-5171.54
-4737.84
-4325.07
-3841.96
-3326.3
-2788.59
-2324.81
-1886.59
-1556.42
-1236.92
-972.111
-755.385
-571.15
-432.157
-325.663
-260.661
-263.096
-180.538
-151.688
-144.829
-163.201
-213.459
-173.398
-173.453
-265.185
-273.478
-261.248
-221.598
-208.637
-174.25
-178.368
-223.265
-251.376
-189.409
-165.511
-143.758
-140.617
-139.641
-153.421
-168.969
-174.755
-199.791
-247.579
-216.841
-251.897
-202.408
-185.047
-156.944
-141.421
-148.073
-160.578
-204.315
-174.552
-183.656
-135.436
-121.278
-109.5
-107.25
-120.372
-146.89
-229.102
-191.632
-239.648
-186.195
-179.326
-196.487
-247.1
-191.142
-174.644
-184.191
-224.093
-181.071
-179.935
-214.851
-163.545
-144.277
-140.689
-143.125
-145.637
-159.591
-149.303
-168.619
-201.724
-212.166
-203.428
-182.204
-153.374
-139.724
-140.401
-159.967
-198.211
-159.494
-146.944
-148.136
-161.282
-169.232
-220.762
-166.479
-149.659
-147.103
-151.325
-173.121
-137.388
-115.675
-102.223
-102.782
-117.174
-132.267
-169.853
-234.633
-229.915
-194.274
-224.432
-195.291
-240.795
-178.619
-160.653
-184.496
-226.369
-195.828
-235.699
-190.625
-176.414
-157.143
-155.959
-156.978
-151.452
-160.532
-178.052
-216.121
-283.707
-213.95
-195.821
-213.127
-249.736
-205.073
-242.34
-185.92
-154.964
-154.973
-157.693
-181.72
-196.382
-228.93
-234.646
-283.276
-248.771
-263.715
-180.782
-151.385
-154.146
-172.803
-218.438
-172.428
-158.275
-148.193
-154.267
-180.205
-233.753
-190.875
-181.861
-190.351
-199.125
-254.861
-258.717
-189.913
-161.08
-152.386
-148.76
-196.831
-157.31
-147.201
-160.84
-160.705
-169.851
-182.692
-159.922
-171.829
-237.854
-173.768
-157.133
-180.477
-173.653
-195.979
-198.92
-261.672
-214.144
-216.264
-231.828
-287.612
-238.322
-258.534
-255.07
-202.563
-183.124
-204.104
-234.014
-187.253
-172.672
-164.058
-180.155
-157.506
-147.683
-143.442
-146.458
-157.783
-185.897
-260.284
-237.378
-188.153
-186.64
-219.423
-225.358
-296.614
-242.871
-276.479
-207.251
-178.354
-172.402
-192.573
-249.136
-241.201
-231.242
-294.748
-258.521
-306.755
-317.784
-266.154
-299.248
-238.303
-210.99
-198.67
-190.312
-192.17
-196.877
-232.63
-281.32
-228.139
-217.128
-199.682
-184.878
-178.943
-186.803
-191.089
-200.578
-252.019
-210.093
-200.169
-216.282
-274.325
-242.27
-282.12
-212.066
-193.455
-177.902
-184.108
-213.848
-176.638
-169.875
-176.32
-184.545
-178.781
-196.36
-155.36
-146.746
-143.522
-146.823
-172.868
-154.203
-165.97
-177.419
-164.051
-168.807
-211.013
-196.288
-249.239
-211.85
-269.323
-226.712
-165.367
-148.518
-144.606
-148.481
-148.62
-160.505
-188.645
-174.763
-163.028
-171.882
-149.036
-143.18
-149.088
-143.427
-145.453
-149.605
-148.47
-156.727
-196.857
-148.348
-146.534
-151.677
-164.903
-218.359
-186.943
-176.6
-175.154
-161.874
-175.685
-247.933
-219.888
-159.364
-143.603
-131.751
-130.385
-146.32
-190.521
-149.09
-140.638
-143.143
-152.713
-172.641
-202.776
-216.488
-247.238
-235.564
-264.903
-217.843
-235.397
-188.661
-186.778
-245.96
-210.329
-250.745
-218.082
-166.391
-150.114
-142.871
-133.23
-123.491
-119.61
-115.814
-121.423
-127.694
-139.689
-164.118
-226.012
-209.102
-173.645
-183.86
-231.997
-242.232
-235.507
-162.694
-132.072
-136.074
-136.563
-148.13
-182.371
-177.104
-236.245
-197.295
-233.63
-218.591
-196.943
-211.548
-246.704
-229.807
-229.243
-269.476
-236.8
-188.746
-166.73
-160.961
-191.126
-140.522
-124.385
-119.665
-127.022
-137.317
-164.652
-239.441
-178.888
-170.435
-168.133
-181.165
-230.487
-202.971
-213.674
-203.867
-208.006
-204.077
-221.151
-207.592
-267.114
-200.773
-181.945
-182.816
-186.833
-181.707
-198.757
-250.279
-197.758
-204.831
-271.68
-229.028
-214.911
-236.525
-255.421
-182.074
-165.973
-177.776
-251.428
-240.846
-171.33
-142.18
-140.61
-147.772
-182.502
-255.508
-258.574
-196.857
-184.85
-170.99
-167.157
-189.342
-246.647
-202.918
-210.657
-261.705
-212.041
-211.276
-222.361
-297.338
-8988.64
-8988.19
-8987.3
-8986.18
-8984.85
-8983.33
-8981.55
-8979.84
-8978.13
-8975.82
-8973.34
-8971.58
-8969.96
-8967.32
-8965.56
-8964.92
-8964.01
-8963.56
-8963.17
-8963.24
-8964.13
-8965.74
-8968.24
-8971.62
-8975.97
-8981.24
-8986.96
-8994.41
-9004.9
-9018.08
-9032.54
-9046.68
-9060.4
-9074.56
-9092.47
-9115.08
-9138.81
-9162.18
-9187.05
-9217.04
-9248.31
-9280.82
-9312.93
-9343.6
-9373.88
-9404.19
-9444.68
-9486.74
-9526.57
-9564.58
-9607.45
-9640.89
-9667.1
-9694.63
-9708.2
-9721.33
-9738.75
-9739.17
-9752.19
-9781.39
-9730.13
-9641.3
-9577.13
-9497.51
-9415.43
-9294.82
-9172.54
-9013.64
-8848.04
-8589.91
-8323.85
-8162.58
-7939.35
-7631.88
-7395.27
-7024.56
-6785.91
-6448.69
-6052.29
-5589.78
-5216.9
-4817.5
-4337.41
-3840.43
-3297.98
-2808.17
-2351.6
-1968.09
-1665.93
-1385.2
-1167.71
-989.718
-838.448
-727.741
-654.708
-621.825
-617.393
-607.59
-639.782
-627.102
-645.87
-627.678
-625.351
-625.608
-696.224
-697.003
-725.98
-731.028
-655.47
-652.833
-727.706
-681.781
-660.515
-629.041
-619.5
-621.539
-649.714
-644.667
-688.383
-672.906
-709.927
-680.222
-696.751
-753.29
-697.096
-701.957
-651.393
-638.627
-639.147
-667.385
-704.027
-688.451
-703.327
-632.73
-607.094
-595.066
-607.837
-644.333
-656.457
-627.433
-654.086
-700.377
-658.944
-656.323
-692.582
-655.738
-689.509
-672.28
-652.338
-686.034
-639.906
-625.094
-631.044
-640.689
-657.955
-659.418
-645.716
-662.547
-673.852
-646.085
-645.441
-711.511
-719.767
-721.237
-701.783
-662.469
-621.711
-613.09
-654.178
-613.839
-599.962
-603.834
-630.578
-665.767
-635.024
-606.304
-626.076
-628.948
-638.572
-698.246
-718.816
-653.558
-658.647
-608.253
-596.699
-602.773
-654.026
-679.845
-675.597
-715.968
-679.005
-723.118
-654.417
-632.304
-658.958
-664.385
-638.926
-649.834
-657.441
-711.703
-664.288
-668.911
-664.354
-652.985
-699.95
-688.619
-660.794
-676.091
-730.44
-748.405
-710.615
-708.282
-727.457
-728.531
-658.991
-642.857
-647.805
-663.992
-644.163
-661.785
-721.157
-724.224
-735.638
-701.948
-693.433
-717.422
-665.756
-649.439
-638.432
-633.993
-630.45
-638.994
-644.754
-635.02
-645.031
-670.204
-674.687
-669.34
-668.705
-666.407
-710.588
-726.058
-771.043
-759.055
-692.986
-659.046
-633.891
-644.576
-681.095
-646.106
-670.61
-695.137
-680.527
-717.621
-732.594
-664.873
-666.729
-727.867
-669.915
-659.052
-711.963
-685.284
-731.086
-667.427
-661.328
-700.126
-751.207
-746.33
-688.903
-689.063
-716.957
-727.507
-694.121
-687.168
-698.558
-769.822
-723.979
-686.352
-709.495
-726.415
-680.424
-688.434
-651.456
-648.424
-664.624
-713.124
-742.44
-745.227
-675.915
-682.863
-750.757
-742.106
-780.59
-723.355
-690.515
-698.623
-662.073
-655.881
-657.259
-700.725
-706.45
-683.452
-682.518
-741.824
-783.688
-720.98
-686.529
-672.432
-723.197
-685.856
-705.313
-676.044
-713.267
-680.744
-710.061
-667.089
-678.051
-718.873
-699.418
-691.969
-712.042
-684.025
-695.581
-741.008
-769.897
-716.361
-693.993
-686.083
-680.537
-685.769
-678.771
-714.302
-725.095
-686.305
-688.112
-746.555
-696.186
-685.957
-679.447
-696.192
-700.718
-736.927
-669.761
-634.712
-626.294
-638.962
-668.86
-647.03
-649.076
-689.744
-657.525
-656.987
-689.773
-663.462
-640.264
-653.724
-715.654
-721.732
-646.939
-631.344
-637.857
-653.333
-670.853
-683.508
-736.574
-718.888
-683.424
-677.906
-678.458
-650.315
-680.495
-645.184
-660.261
-682.302
-670.196
-677.212
-716.033
-663.558
-683.824
-641.288
-665.796
-740.997
-709.348
-669.576
-657.985
-643.789
-653.958
-640.119
-676.584
-633.69
-621.051
-633.77
-638.579
-662.608
-643.984
-629.721
-626.917
-629.454
-643.402
-667.105
-741.43
-720.925
-731.925
-692.022
-677.385
-695.381
-733.104
-704.596
-652.257
-639.643
-664.117
-664.097
-724.363
-686.071
-659.257
-630.815
-625.339
-631.024
-633.163
-652.177
-632.717
-626.025
-626.167
-652.346
-704.763
-728.664
-664.562
-652.59
-703.579
-695.457
-690.669
-648.391
-645.148
-612.847
-612.1
-636.464
-699.325
-682.525
-645.598
-666.365
-749.938
-760.695
-707.195
-718.003
-805.361
-789.212
-738.403
-781.157
-766.429
-703.175
-711.511
-705.26
-705.018
-637.878
-625.367
-643.31
-642.624
-645.7
-664.406
-740.783
-707.626
-710.493
-670.446
-687.904
-742.332
-697.089
-736.908
-720.274
-728.637
-699.685
-740.632
-704.736
-663.455
-673.395
-683.222
-691.549
-724.696
-695.92
-657.12
-629.919
-643.545
-656.387
-645.267
-688.172
-677.399
-735.644
-734.523
-684.688
-647.62
-654.686
-628
-628.431
-626.253
-636.518
-634.325
-672.194
-669.263
-748.699
-737.692
-693.252
-663.896
-654.736
-655.621
-668.693
-725.815
-705.533
-674.601
-655.466
-663.341
-707.535
-686.001
-640.931
-9223.95
-9223.39
-9222.13
-9220.35
-9218.11
-9215.66
-9212.55
-9209.48
-9206.43
-9202.31
-9198.52
-9195.26
-9191.65
-9187.43
-9183.75
-9180.77
-9178.1
-9176.18
-9174.19
-9172.49
-9172.01
-9172.45
-9173.51
-9175.79
-9179.61
-9184.99
-9191.72
-9200.43
-9211.75
-9226.13
-9243.08
-9260.8
-9278.46
-9296.5
-9319.17
-9348
-9378.92
-9409.58
-9442.23
-9477.85
-9517.84
-9560.48
-9604.28
-9649.25
-9695.83
-9744.88
-9793.56
-9835.18
-9888.5
-9951.77
-10010.1
-10060.3
-10106.7
-10158.2
-10209.6
-10241
-10274.7
-10292.8
-10328.7
-10325.8
-10232.3
-10222.7
-10173.3
-10106.2
-10033.9
-9931.8
-9818.98
-9659.02
-9407.56
-9267.08
-8960.96
-8772.14
-8511.77
-8197.92
-7946.24
-7589.7
-7193.99
-6905.6
-6518.02
-6061.64
-5575.84
-5222.71
-4771.68
-4254
-3799.48
-3268.84
-2832.25
-2422.77
-2094.11
-1829.67
-1599.67
-1431.51
-1292.83
-1192.32
-1129.62
-1070.84
-1063.29
-1087.1
-1157.99
-1135.96
-1141.66
-1109.06
-1087.73
-1095.26
-1110.57
-1133.99
-1186.52
-1190.91
-1141.22
-1140.41
-1196.54
-1149.05
-1166.62
-1160.48
-1122.91
-1133.09
-1178.55
-1157.09
-1198.59
-1173.59
-1220.72
-1167.88
-1174.93
-1241.35
-1194.54
-1199.87
-1155.52
-1151.58
-1192.88
-1214.62
-1175.04
-1162.32
-1138.25
-1150.29
-1161.67
-1126.19
-1126.25
-1212.73
-1212.34
-1133.05
-1152.95
-1132.56
-1166.31
-1179.92
-1183.8
-1133.1
-1199.04
-1224.14
-1183.57
-1161.36
-1155.87
-1154.67
-1118.46
-1141.1
-1202.64
-1205.5
-1163.5
-1196.84
-1159.09
-1137.67
-1144.27
-1174.77
-1172.08
-1193.09
-1174.63
-1191.07
-1128.68
-1110.18
-1150.69
-1098.41
-1130.53
-1149.94
-1176.57
-1167.91
-1137.83
-1142.95
-1142.85
-1179.32
-1199.6
-1235.21
-1217.9
-1177.21
-1204.83
-1149.84
-1122.55
-1135.36
-1186.08
-1185.47
-1119.86
-1113.52
-1151.53
-1199.4
-1136.01
-1117.93
-1200.63
-1208.52
-1173.5
-1126.37
-1120.81
-1121.07
-1173.93
-1156.68
-1184.71
-1172.83
-1235.82
-1238.49
-1187.49
-1184.03
-1234.37
-1194.59
-1213.67
-1234.66
-1181.14
-1131.38
-1125.94
-1121.75
-1188.89
-1220.44
-1178.62
-1171.53
-1233.8
-1228.37
-1198.74
-1210.32
-1161.01
-1192.35
-1137.14
-1132.8
-1140.03
-1182.77
-1174.34
-1157.8
-1205.44
-1205.66
-1186.78
-1225.13
-1214.16
-1172.9
-1208.44
-1188.43
-1209.38
-1239.28
-1197.56
-1195.36
-1238.81
-1234.35
-1203.31
-1161.17
-1135.1
-1156.99
-1219.3
-1219.1
-1207.22
-1258.55
-1247.1
-1179.32
-1171.02
-1223.46
-1172.68
-1164.35
-1171.83
-1215.92
-1230.31
-1192.48
-1164.95
-1247.89
-1284.29
-1268.07
-1171.71
-1160.2
-1161.07
-1165.59
-1199.94
-1187.92
-1234.43
-1291.41
-1274.01
-1204.42
-1249.6
-1239.4
-1200.94
-1238.82
-1191.16
-1205.46
-1201.99
-1242.86
-1163.65
-1146.01
-1157.3
-1178.46
-1234.81
-1234.39
-1195.97
-1230.66
-1179.44
-1199.34
-1167.13
-1177.69
-1146.2
-1142.14
-1150
-1133.39
-1139.64
-1231.48
-1243.76
-1166.05
-1146.58
-1148.25
-1216.84
-1202.35
-1185.27
-1192.47
-1219.53
-1172.29
-1169.92
-1132.7
-1154.34
-1213.61
-1230.97
-1208.04
-1258.6
-1223.38
-1249.87
-1279.72
-1231.42
-1254.81
-1235.97
-1222.2
-1180.28
-1212.95
-1187.67
-1252.23
-1254.98
-1199.39
-1208.5
-1250.44
-1218
-1231.2
-1205.55
-1209.92
-1200.02
-1238.13
-1192.37
-1196.17
-1181.36
-1149.02
-1150.5
-1151.83
-1171.66
-1208.11
-1153.6
-1140
-1153.99
-1159.79
-1109.82
-1113.43
-1100.56
-1126.13
-1152.73
-1180.6
-1193.39
-1225
-1238.13
-1214.49
-1241.9
-1238.65
-1194.27
-1191.83
-1211.92
-1167.11
-1194.6
-1181.32
-1221.36
-1225.08
-1199.06
-1218.03
-1156.68
-1154.94
-1213.63
-1192.98
-1183.65
-1240.54
-1195.27
-1203.12
-1155.25
-1141.88
-1176.61
-1118.16
-1120.65
-1131.05
-1161.12
-1194.29
-1155.01
-1195.53
-1144.52
-1144.43
-1185.24
-1192.44
-1215
-1211.88