/*--------------------------------*- C++ -*----------------------------------*\
| =========                 |                                                 |
| \\      /  F ield         | OpenFOAM: The Open Source CFD Toolbox           |
|  \\    /   O peration     | Version:  v2012                                 |
|   \\  /    A nd           | Website:  www.openfoam.com                      |
|    \\/     M anipulation  |                                                 |
\*---------------------------------------------------------------------------*/
FoamFile
{
    version     2.0;
    format      ascii;
    class       volScalarField;
    location    "300";
    object      p;
}
// * * * * * * * * * * * * * * * * * * * * * * * * * * * * * * * * * * * * * //

dimensions      [1 -1 -2 0 0 0 0];


internalField   nonuniform List<scalar> 
65536
(
158111
158111
158110
158109
158108
158106
158104
158102
158099
158096
158093
158089
158085
158081
158075
158070
158063
158057
158050
158042
158034
158025
158016
158007
157997
157986
157975
157962
157950
157936
157922
157908
157894
157879
157863
157847
157830
157813
157796
157778
157760
157741
157724
157707
157690
157672
157654
157636
157618
157601
157585
157568
157552
157536
157521
157507
157493
157480
157467
157454
157444
157434
157426
157422
157418
157417
157418
157421
157427
157435
157444
157455
157466
157479
157492
157503
157515
157531
157548
157561
157577
157594
157602
157613
157624
157632
157638
157645
157650
157654
157656
157657
157657
157655
157653
157650
157647
157643
157639
157635
157631
157627
157623
157619
157615
157611
157607
157603
157600
157596
157592
157589
157585
157581
157578
157574
157571
157568
157565
157562
157559
157556
157553
157551
157548
157546
157543
157541
157539
157537
157535
157533
157531
157529
157527
157525
157523
157521
157520
157518
157516
157515
157513
157512
157510
157509
157508
157507
157506
157506
157505
157504
157503
157503
157502
157501
157500
157499
157498
157498
157497
157496
157495
157494
157494
157493
157492
157492
157491
157490
157489
157489
157488
157487
157487
157486
157486
157485
157484
157484
157483
157482
157482
157481
157481
157480
157480
157480
157479
157479
157478
157478
157477
157477
157477
157476
157476
157475
157475
157474
157474
157473
157473
157472
157472
157471
157471
157471
157470
157470
157470
157469
157469
157469
157469
157468
157468
157468
157468
157468
157468
157468
157468
157468
157468
157468
157468
157467
157467
157467
157467
157466
157466
157466
157465
157465
157465
157464
157464
157463
157463
157462
157462
157461
157461
157460
157460
157459
157459
157459
157459
157459
157459
157459
157459
157459
157459
157459
157459
157459
157459
157459
157459
157459
157458
157458
157458
157457
157457
157457
157457
157456
157456
157456
157455
157455
157455
157455
157455
157455
157455
157455
157454
157454
157454
157454
157454
157454
157454
157454
157454
157454
157454
157454
157453
157453
157453
157452
157452
157451
157451
157450
157450
157450
157449
157449
157448
157447
157447
157446
157446
157445
157444
157444
157443
157442
157442
157441
157441
157440
157440
157440
157440
157439
157439
157439
157439
157438
157438
157438
157438
157438
157437
157437
157437
157437
157437
157437
157437
157437
157436
157436
157436
157436
157435
157435
157434
157434
157434
157433
157433
157433
157432
157432
157432
157431
157431
157431
157431
157431
157431
157431
157431
157432
157432
157433
157433
157434
157434
157434
157434
157434
157434
157433
157433
157432
157432
157431
157431
157430
157430
157430
157430
157429
157429
157429
157429
157429
157429
157429
157429
157429
157430
157430
157430
157430
157430
157430
157430
157430
157430
157430
157430
157430
157430
157430
157431
157431
157431
157431
157431
157431
157431
157432
157432
157433
157433
157433
157433
157434
157434
157434
157434
157435
157435
157435
157436
157436
157436
157437
157437
157437
157437
157437
157437
157438
157438
157438
157438
157438
157438
157438
157438
157438
157438
157438
157438
157438
157438
157438
157438
157438
157438
157438
157438
157438
157438
157438
157438
157438
157438
157437
157437
157437
157436
157436
157436
157436
157436
157436
157436
157436
157436
157436
157436
157436
157436
157436
157436
157436
157436
157436
157436
157436
157436
157436
157436
157436
157436
157436
157436
157436
157436
157437
157437
157437
157437
157438
157438
157438
157439
157439
157439
157439
157440
157440
157440
157441
157441
157441
157441
157442
157188
157187
157187
157186
157184
157183
157181
157178
157176
157173
157170
157166
157162
157157
157152
157146
157140
157133
157126
157119
157110
157102
157093
157083
157073
157063
157051
157039
157026
157013
156999
156985
156970
156955
156940
156924
156907
156890
156873
156855
156837
156819
156801
156784
156767
156750
156731
156713
156695
156679
156662
156646
156630
156615
156599
156585
156572
156559
156545
156533
156522
156515
156507
156502
156499
156498
156497
156501
156507
156515
156527
156538
156549
156561
156576
156589
156605
156620
156636
156651
156666
156683
156695
156709
156718
156729
156737
156743
156749
156753
156755
156757
156757
156756
156754
156752
156749
156745
156742
156738
156735
156731
156727
156723
156719
156715
156711
156707
156703
156700
156696
156693
156689
156685
156682
156678
156675
156672
156669
156666
156663
156661
156658
156655
156653
156650
156648
156646
156643
156641
156639
156637
156635
156633
156631
156630
156628
156626
156624
156623
156621
156619
156618
156616
156615
156614
156613
156612
156611
156610
156610
156609
156608
156607
156606
156606
156605
156604
156603
156603
156602
156601
156601
156600
156599
156598
156597
156597
156596
156595
156594
156594
156593
156592
156592
156591
156591
156590
156589
156589
156588
156588
156587
156586
156586
156586
156585
156585
156584
156584
156583
156583
156583
156582
156582
156581
156581
156580
156580
156579
156579
156578
156578
156577
156577
156576
156576
156576
156576
156575
156575
156575
156574
156574
156574
156574
156574
156573
156573
156573
156573
156573
156573
156573
156573
156573
156573
156572
156572
156572
156572
156572
156571
156571
156571
156570
156570
156570
156569
156569
156568
156568
156567
156566
156566
156565
156565
156565
156565
156564
156564
156565
156565
156565
156565
156565
156565
156565
156565
156564
156564
156564
156564
156564
156564
156563
156563
156563
156562
156562
156562
156561
156561
156561
156560
156560
156560
156560
156560
156560
156560
156560
156560
156560
156559
156559
156559
156559
156559
156559
156559
156559
156559
156559
156558
156558
156558
156557
156557
156556
156556
156556
156555
156555
156554
156554
156553
156553
156552
156551
156551
156550
156549
156549
156548
156548
156547
156547
156546
156546
156545
156545
156545
156544
156544
156544
156544
156544
156544
156543
156543
156543
156543
156543
156542
156542
156542
156542
156542
156542
156542
156541
156541
156541
156540
156540
156540
156539
156539
156539
156538
156538
156538
156537
156537
156537
156537
156536
156536
156536
156536
156537
156537
156537
156538
156538
156539
156539
156539
156539
156539
156539
156539
156539
156538
156538
156537
156537
156536
156536
156535
156535
156535
156535
156535
156535
156535
156535
156535
156535
156535
156535
156535
156535
156535
156535
156535
156535
156535
156535
156535
156535
156535
156535
156536
156536
156536
156536
156536
156536
156536
156537
156537
156537
156538
156538
156538
156539
156539
156539
156539
156540
156540
156540
156540
156541
156541
156541
156542
156542
156542
156543
156543
156543
156543
156543
156543
156543
156543
156543
156543
156543
156543
156543
156543
156543
156543
156543
156543
156543
156543
156543
156543
156543
156543
156543
156543
156543
156543
156543
156543
156542
156542
156542
156541
156541
156541
156541
156541
156541
156541
156541
156541
156541
156541
156541
156541
156541
156541
156541
156541
156541
156541
156542
156542
156542
156542
156542
156542
156542
156542
156542
156542
156542
156542
156542
156543
156543
156543
156544
156544
156544
156544
156545
156545
156545
156546
156546
156546
156546
156547
156547
156267
156266
156266
156265
156264
156262
156260
156258
156255
156252
156249
156245
156241
156236
156231
156225
156219
156212
156205
156198
156190
156181
156172
156163
156152
156141
156130
156118
156105
156092
156078
156064
156050
156035
156019
156003
155986
155969
155951
155933
155916
155898
155881
155864
155847
155829
155810
155792
155775
155759
155743
155727
155711
155696
155680
155666
155654
155640
155626
155614
155604
155596
155590
155585
155581
155581
155582
155584
155591
155598
155608
155622
155634
155645
155663
155675
155694
155710
155727
155743
155759
155776
155789
155805
155817
155824
155835
155843
155848
155853
155857
155859
155859
155859
155858
155856
155854
155851
155848
155844
155841
155837
155833
155830
155826
155822
155818
155814
155811
155807
155804
155800
155797
155793
155790
155787
155784
155780
155778
155775
155772
155769
155766
155764
155761
155759
155757
155755
155752
155750
155748
155747
155744
155742
155741
155739
155737
155736
155734
155732
155730
155729
155727
155725
155724
155723
155722
155721
155721
155720
155719
155718
155718
155717
155716
155715
155714
155714
155713
155712
155712
155711
155710
155709
155709
155708
155707
155706
155705
155705
155704
155703
155702
155702
155701
155701
155700
155699
155699
155698
155698
155697
155697
155696
155696
155695
155695
155694
155694
155694
155693
155693
155692
155692
155691
155691
155691
155690
155690
155689
155688
155688
155688
155687
155687
155686
155686
155686
155685
155685
155685
155684
155684
155684
155684
155684
155683
155683
155683
155683
155683
155683
155683
155683
155683
155682
155682
155682
155682
155682
155681
155681
155681
155680
155680
155680
155679
155679
155679
155678
155678
155677
155677
155676
155676
155675
155675
155674
155674
155674
155674
155675
155675
155675
155675
155675
155674
155674
155674
155674
155674
155674
155674
155673
155673
155673
155673
155672
155672
155672
155671
155671
155671
155670
155670
155670
155670
155670
155669
155669
155669
155669
155669
155669
155669
155669
155669
155669
155669
155669
155669
155669
155669
155668
155668
155668
155667
155667
155666
155666
155666
155665
155664
155664
155663
155663
155662
155662
155661
155660
155660
155659
155659
155658
155658
155657
155656
155656
155655
155655
155655
155655
155655
155655
155655
155654
155654
155654
155653
155653
155653
155652
155652
155653
155652
155652
155652
155652
155652
155652
155651
155651
155651
155650
155650
155650
155649
155649
155649
155648
155648
155648
155647
155647
155647
155647
155647
155646
155646
155646
155646
155647
155647
155647
155648
155648
155648
155649
155649
155649
155649
155649
155649
155648
155648
155648
155647
155647
155646
155646
155645
155645
155645
155645
155645
155645
155645
155645
155645
155645
155645
155645
155645
155645
155645
155646
155645
155645
155646
155645
155645
155645
155645
155646
155646
155646
155646
155646
155646
155646
155646
155646
155646
155647
155647
155648
155648
155649
155649
155649
155649
155649
155650
155650
155650
155650
155651
155651
155652
155652
155652
155652
155652
155652
155652
155653
155653
155653
155653
155653
155653
155653
155653
155653
155653
155653
155653
155653
155653
155653
155653
155653
155653
155653
155653
155654
155653
155653
155653
155653
155653
155652
155652
155651
155651
155651
155651
155651
155651
155651
155651
155651
155651
155651
155651
155651
155651
155651
155651
155651
155651
155651
155651
155651
155651
155651
155652
155651
155651
155652
155652
155652
155652
155652
155652
155653
155653
155653
155653
155654
155654
155654
155654
155654
155655
155655
155655
155655
155656
155656
155656
155656
155349
155348
155348
155347
155345
155344
155342
155340
155337
155334
155331
155327
155322
155318
155312
155307
155301
155294
155287
155280
155272
155263
155254
155244
155234
155223
155212
155200
155187
155174
155160
155146
155131
155116
155100
155084
155067
155050
155032
155015
154997
154980
154963
154946
154928
154910
154892
154873
154857
154841
154825
154809
154794
154778
154762
154749
154737
154723
154707
154696
154688
154681
154673
154668
154665
154665
154666
154668
154674
154683
154693
154706
154721
154734
154750
154766
154783
154803
154819
154835
154852
154869
154885
154899
154914
154927
154933
154944
154952
154956
154960
154963
154964
154965
154964
154963
154961
154959
154957
154954
154951
154947
154943
154940
154936
154933
154929
154926
154922
154919
154915
154912
154909
154905
154902
154899
154896
154893
154890
154887
154884
154882
154879
154877
154874
154872
154870
154867
154865
154863
154862
154859
154857
154856
154854
154852
154850
154848
154847
154845
154844
154842
154841
154839
154838
154837
154835
154834
154834
154833
154832
154831
154831
154830
154829
154828
154828
154827
154827
154826
154825
154825
154824
154823
154822
154821
154820
154820
154819
154818
154817
154817
154816
154815
154815
154814
154813
154813
154812
154812
154812
154811
154810
154810
154809
154809
154809
154808
154808
154807
154807
154806
154806
154805
154805
154805
154804
154804
154803
154802
154802
154802
154801
154800
154800
154800
154799
154799
154799
154799
154799
154798
154798
154798
154797
154797
154797
154797
154797
154797
154797
154797
154797
154796
154796
154796
154796
154795
154795
154795
154795
154794
154794
154794
154793
154793
154793
154793
154792
154792
154792
154791
154791
154790
154790
154789
154789
154788
154788
154788
154788
154788
154788
154788
154788
154788
154788
154788
154788
154787
154787
154787
154787
154787
154787
154786
154786
154786
154785
154785
154785
154784
154784
154783
154783
154783
154783
154783
154783
154783
154783
154783
154783
154783
154783
154783
154783
154782
154782
154782
154782
154782
154782
154782
154782
154781
154781
154780
154780
154780
154779
154779
154778
154777
154777
154776
154776
154775
154775
154774
154773
154773
154773
154772
154771
154771
154770
154770
154770
154769
154769
154769
154768
154768
154768
154768
154768
154767
154767
154767
154766
154767
154766
154766
154766
154766
154766
154766
154766
154765
154765
154765
154764
154764
154764
154763
154763
154763
154763
154762
154762
154762
154761
154761
154761
154761
154761
154761
154761
154761
154761
154761
154761
154761
154762
154762
154762
154763
154762
154762
154762
154762
154762
154762
154762
154761
154761
154761
154760
154760
154760
154760
154760
154759
154759
154759
154759
154759
154759
154759
154759
154759
154760
154760
154760
154760
154759
154760
154760
154760
154760
154760
154760
154760
154760
154760
154760
154760
154760
154760
154760
154761
154761
154762
154762
154762
154763
154763
154763
154763
154764
154764
154764
154764
154764
154764
154765
154765
154765
154766
154766
154766
154766
154766
154766
154767
154767
154766
154767
154767
154767
154767
154767
154767
154767
154767
154767
154767
154767
154767
154767
154767
154767
154767
154767
154767
154767
154767
154767
154766
154766
154766
154765
154765
154765
154765
154765
154765
154765
154764
154765
154765
154764
154764
154764
154764
154765
154764
154764
154765
154765
154765
154765
154765
154765
154765
154766
154766
154765
154766
154766
154766
154766
154766
154766
154766
154767
154767
154767
154766
154767
154768
154768
154768
154769
154769
154769
154769
154769
154770
154770
154770
154434
154434
154433
154432
154431
154429
154427
154425
154422
154419
154416
154412
154408
154403
154398
154392
154386
154380
154372
154365
154357
154348
154339
154329
154319
154308
154297
154285
154272
154259
154245
154231
154216
154201
154185
154168
154151
154134
154117
154099
154082
154065
154048
154030
154012
153994
153975
153958
153941
153926
153909
153893
153878
153861
153847
153834
153822
153806
153791
153781
153774
153768
153759
153753
153751
153751
153753
153757
153761
153770
153781
153795
153810
153824
153840
153860
153875
153898
153916
153932
153948
153965
153982
153998
154011
154027
154039
154044
154055
154061
154066
154069
154072
154073
154073
154073
154072
154070
154068
154066
154063
154060
154057
154053
154050
154046
154043
154040
154036
154033
154030
154026
154023
154020
154017
154014
154011
154008
154006
154003
154000
153998
153995
153993
153991
153988
153986
153984
153982
153980
153978
153976
153974
153972
153970
153969
153967
153966
153964
153962
153961
153959
153958
153956
153955
153953
153953
153952
153951
153950
153949
153948
153947
153947
153946
153946
153945
153945
153944
153944
153943
153943
153942
153941
153940
153939
153938
153937
153936
153935
153934
153934
153933
153933
153932
153931
153931
153930
153929
153929
153929
153928
153928
153927
153927
153927
153926
153926
153925
153924
153924
153924
153923
153923
153922
153922
153921
153921
153921
153920
153920
153920
153918
153918
153917
153917
153917
153917
153917
153917
153916
153916
153915
153915
153915
153915
153915
153915
153914
153914
153914
153914
153914
153914
153913
153913
153913
153913
153913
153912
153912
153912
153912
153911
153911
153911
153910
153910
153910
153909
153909
153909
153908
153908
153907
153907
153906
153906
153906
153906
153906
153906
153906
153906
153906
153906
153906
153906
153906
153905
153905
153905
153905
153904
153904
153904
153904
153903
153903
153902
153902
153902
153901
153901
153901
153901
153901
153900
153900
153900
153900
153900
153900
153900
153900
153900
153900
153900
153900
153900
153900
153900
153899
153899
153898
153898
153898
153897
153897
153897
153896
153896
153895
153895
153894
153893
153893
153892
153892
153892
153891
153890
153890
153889
153889
153889
153888
153887
153887
153887
153886
153886
153886
153886
153886
153885
153885
153885
153885
153885
153884
153884
153884
153884
153884
153884
153883
153883
153883
153883
153882
153882
153882
153881
153882
153881
153881
153880
153880
153879
153879
153879
153879
153879
153879
153879
153879
153879
153879
153879
153879
153879
153878
153879
153880
153880
153879
153880
153879
153880
153880
153880
153880
153880
153880
153879
153879
153878
153878
153878
153878
153878
153878
153878
153878
153877
153877
153877
153877
153877
153877
153878
153878
153878
153878
153878
153878
153878
153878
153878
153878
153878
153878
153878
153878
153878
153878
153878
153878
153878
153878
153878
153879
153879
153879
153880
153880
153880
153881
153881
153881
153881
153881
153882
153882
153882
153882
153882
153883
153883
153884
153884
153884
153884
153884
153885
153885
153884
153884
153883
153884
153884
153884
153884
153884
153884
153884
153884
153885
153884
153885
153885
153885
153885
153885
153885
153884
153885
153885
153884
153884
153883
153883
153883
153882
153882
153882
153882
153882
153882
153882
153883
153883
153882
153881
153882
153882
153882
153882
153882
153881
153882
153882
153883
153883
153883
153883
153883
153883
153884
153884
153884
153884
153884
153884
153884
153885
153885
153885
153885
153885
153886
153886
153886
153886
153886
153886
153887
153887
153887
153887
153887
153523
153522
153522
153521
153519
153518
153516
153514
153511
153508
153504
153501
153496
153492
153486
153481
153475
153468
153461
153453
153445
153437
153428
153418
153407
153396
153385
153373
153360
153347
153333
153319
153304
153288
153272
153255
153238
153221
153204
153187
153169
153152
153134
153116
153098
153080
153062
153045
153029
153012
152996
152981
152965
152948
152933
152922
152907
152893
152879
152870
152864
152855
152848
152841
152838
152837
152839
152843
152850
152859
152869
152884
152902
152917
152933
152953
152973
152993
153015
153033
153049
153067
153082
153100
153114
153127
153144
153153
153160
153169
153174
153179
153182
153184
153185
153185
153185
153184
153183
153181
153179
153176
153173
153169
153166
153163
153160
153157
153154
153151
153148
153145
153142
153138
153136
153133
153130
153128
153125
153123
153120
153118
153115
153113
153111
153108
153106
153104
153102
153101
153099
153097
153095
153093
153090
153089
153088
153086
153084
153082
153081
153080
153078
153076
153076
153074
153073
153072
153072
153071
153069
153069
153068
153068
153067
153066
153066
153066
153065
153065
153064
153063
153062
153061
153060
153060
153059
153058
153057
153056
153055
153054
153054
153054
153053
153052
153052
153052
153051
153051
153050
153050
153049
153050
153048
153048
153047
153047
153046
153046
153045
153045
153044
153044
153043
153043
153042
153042
153041
153041
153040
153040
153039
153039
153039
153039
153038
153038
153038
153038
153037
153037
153037
153037
153036
153036
153036
153036
153036
153035
153035
153035
153034
153034
153034
153034
153034
153034
153033
153033
153033
153033
153033
153032
153032
153032
153031
153031
153030
153030
153030
153030
153029
153029
153028
153028
153028
153028
153027
153027
153027
153027
153027
153027
153027
153027
153027
153026
153026
153026
153025
153025
153025
153025
153025
153025
153024
153024
153023
153023
153023
153022
153022
153022
153021
153021
153022
153021
153021
153021
153021
153021
153021
153021
153021
153021
153021
153021
153021
153020
153021
153020
153020
153020
153020
153019
153019
153018
153018
153017
153017
153017
153016
153015
153015
153014
153013
153013
153013
153013
153012
153012
153011
153011
153010
153009
153009
153008
153008
153008
153008
153007
153007
153007
153007
153007
153006
153006
153006
153006
153005
153005
153006
153005
153005
153005
153005
153004
153004
153003
153003
153003
153003
153003
153003
153002
153002
153002
153002
153000
153001
153001
153001
153001
153000
153000
153000
153001
153001
153001
153001
153001
153001
153001
153001
153001
153001
153000
153000
153001
153001
153001
153001
153001
153000
153001
153000
153000
153000
153000
152999
152999
152999
152999
152998
152998
152998
152999
152998
152999
152998
152999
152999
152999
152999
152999
152999
152999
152999
153000
153000
153000
153000
153000
153000
153000
153000
152999
153000
153000
153000
153000
153000
153001
153001
153002
153002
153002
153003
153003
153003
153003
153003
153003
153003
153003
153003
153004
153004
153004
153005
153005
153005
153005
153005
153005
153006
153005
153005
153005
153005
153005
153005
153005
153005
153005
153005
153005
153006
153006
153006
153006
153006
153006
153007
153007
153006
153006
153006
153006
153006
153006
153005
153004
153004
153003
153004
153003
153004
153004
153004
153004
153003
153003
153003
153003
153003
153003
153003
153003
153003
153003
153003
153002
153003
153004
153004
153005
153005
153005
153005
153006
153006
153006
153006
153006
153007
153007
153007
153007
153007
153007
153007
153007
153007
153008
153008
153008
153008
153008
153008
153008
152615
152615
152614
152613
152612
152611
152609
152606
152604
152601
152597
152593
152589
152584
152579
152574
152567
152561
152554
152546
152538
152529
152520
152510
152500
152489
152477
152465
152452
152439
152425
152410
152395
152379
152363
152347
152330
152312
152295
152277
152260
152242
152224
152206
152188
152170
152152
152135
152118
152102
152086
152070
152054
152038
152023
152011
151997
151982
151970
151962
151954
151946
151939
151932
151930
151927
151927
151932
151939
151948
151962
151976
151994
152011
152030
152049
152069
152091
152113
152132
152150
152170
152186
152204
152220
152234
152246
152262
152270
152278
152285
152291
152295
152298
152300
152301
152301
152301
152300
152298
152296
152294
152291
152289
152286
152283
152281
152278
152275
152272
152269
152266
152264
152260
152258
152256
152253
152251
152248
152245
152243
152240
152238
152236
152234
152232
152230
152228
152226
152224
152222
152220
152219
152217
152215
152213
152212
152210
152209
152207
152205
152204
152203
152201
152200
152199
152198
152196
152196
152194
152194
152192
152192
152192
152191
152190
152190
152190
152189
152189
152188
152187
152187
152186
152185
152184
152183
152183
152182
152181
152180
152179
152179
152178
152177
152177
152176
152176
152175
152176
152175
152175
152174
152174
152173
152173
152172
152171
152170
152170
152170
152169
152169
152168
152168
152167
152167
152167
152166
152165
152165
152164
152164
152164
152164
152164
152163
152163
152163
152163
152162
152162
152161
152161
152161
152161
152161
152161
152160
152160
152160
152159
152159
152159
152158
152159
152158
152158
152158
152158
152158
152158
152157
152157
152157
152156
152155
152154
152155
152155
152154
152154
152154
152153
152153
152153
152152
152152
152152
152152
152152
152151
152151
152150
152151
152151
152151
152151
152150
152150
152150
152150
152150
152150
152150
152149
152149
152149
152148
152148
152147
152146
152146
152146
152146
152146
152146
152146
152146
152146
152146
152145
152145
152145
152146
152146
152145
152145
152145
152145
152145
152144
152144
152144
152143
152143
152143
152142
152142
152141
152141
152141
152140
152139
152139
152139
152138
152138
152138
152138
152137
152137
152137
152136
152136
152135
152135
152135
152134
152133
152133
152133
152131
152132
152131
152131
152130
152130
152131
152131
152130
152130
152130
152130
152129
152129
152128
152128
152128
152128
152127
152127
152127
152127
152127
152127
152127
152126
152127
152127
152126
152126
152125
152126
152125
152126
152125
152126
152126
152127
152127
152127
152126
152126
152125
152124
152125
152125
152125
152125
152125
152125
152126
152125
152125
152125
152125
152125
152125
152125
152125
152125
152124
152125
152124
152124
152124
152124
152124
152124
152124
152124
152124
152124
152124
152125
152125
152125
152125
152125
152125
152125
152125
152125
152125
152125
152124
152125
152125
152125
152125
152127
152126
152126
152127
152127
152127
152127
152127
152127
152128
152128
152128
152127
152128
152128
152128
152128
152129
152129
152129
152129
152129
152130
152130
152131
152130
152130
152130
152130
152130
152129
152130
152130
152130
152130
152130
152130
152131
152130
152131
152131
152131
152132
152132
152132
152131
152131
152130
152130
152129
152131
152130
152129
152128
152129
152130
152130
152129
152129
152129
152129
152129
152129
152129
152128
152128
152128
152128
152128
152128
152129
152129
152128
152129
152129
152129
152130
152130
152130
152130
152131
152131
152131
152131
152132
152131
152131
152131
152132
152131
152132
152132
152133
152132
152133
152133
152133
152133
152133
152133
152133
151712
151712
151711
151710
151709
151708
151706
151703
151701
151698
151694
151690
151686
151681
151676
151670
151664
151658
151651
151643
151635
151626
151617
151607
151596
151585
151573
151561
151548
151534
151521
151506
151491
151475
151458
151441
151425
151407
151389
151371
151354
151336
151317
151299
151281
151263
151245
151227
151211
151194
151178
151162
151146
151131
151117
151103
151090
151076
151065
151056
151047
151038
151031
151025
151023
151021
151021
151025
151032
151040
151055
151073
151088
151108
151125
151146
151167
151190
151213
151234
151254
151274
151292
151309
151327
151343
151356
151369
151383
151390
151398
151405
151410
151414
151417
151419
151420
151420
151420
151419
151417
151416
151414
151412
151409
151407
151404
151401
151399
151396
151394
151391
151388
151386
151383
151381
151379
151376
151374
151372
151369
151367
151365
151363
151361
151359
151357
151356
151354
151352
151350
151348
151346
151345
151344
151341
151340
151338
151336
151334
151333
151332
151330
151329
151327
151326
151325
151324
151323
151321
151321
151320
151320
151320
151319
151318
151318
151318
151317
151316
151316
151315
151314
151313
151312
151311
151310
151310
151309
151308
151308
151307
151307
151306
151306
151306
151305
151304
151303
151303
151302
151303
151303
151303
151301
151301
151300
151300
151299
151298
151298
151298
151297
151297
151296
151296
151295
151295
151294
151294
151293
151293
151292
151292
151291
151292
151291
151291
151291
151291
151290
151290
151290
151290
151290
151290
151289
151289
151288
151288
151287
151287
151287
151288
151287
151287
151287
151286
151286
151286
151285
151285
151285
151285
151284
151284
151283
151283
151283
151283
151282
151282
151282
151281
151281
151281
151281
151281
151280
151280
151280
151280
151280
151280
151280
151279
151279
151279
151279
151279
151280
151279
151278
151278
151277
151277
151277
151277
151276
151276
151275
151275
151274
151274
151274
151274
151274
151274
151273
151273
151274
151273
151274
151273
151274
151273
151273
151273
151273
151272
151272
151272
151272
151271
151271
151270
151270
151270
151270
151269
151269
151269
151268
151268
151268
151268
151267
151266
151266
151266
151266
151265
151265
151265
151264
151263
151263
151263
151262
151261
151261
151261
151259
151259
151258
151258
151257
151258
151258
151258
151258
151258
151258
151258
151258
151257
151257
151256
151256
151256
151256
151255
151255
151255
151255
151255
151255
151255
151255
151256
151255
151255
151254
151254
151254
151254
151255
151255
151255
151256
151254
151256
151255
151254
151254
151254
151253
151253
151253
151253
151253
151253
151253
151253
151254
151253
151253
151254
151253
151254
151253
151253
151252
151254
151253
151253
151253
151252
151253
151253
151254
151253
151253
151253
151253
151254
151253
151253
151253
151253
151253
151254
151254
151253
151253
151253
151252
151252
151253
151253
151254
151254
151255
151255
151256
151256
151255
151255
151255
151256
151256
151257
151257
151257
151256
151256
151256
151256
151257
151257
151257
151257
151257
151257
151258
151259
151259
151258
151258
151257
151258
151258
151258
151258
151258
151257
151258
151258
151259
151259
151259
151259
151259
151259
151260
151260
151260
151260
151259
151259
151258
151259
151258
151259
151259
151258
151258
151259
151258
151258
151258
151258
151258
151257
151258
151256
151256
151257
151257
151257
151257
151258
151258
151258
151258
151258
151258
151259
151259
151259
151259
151259
151260
151259
151260
151260
151260
151260
151260
151261
151260
151260
151260
151261
151261
151261
151261
151261
151261
151261
151262
151261
150814
150813
150813
150812
150810
150809
150807
150805
150802
150799
150796
150792
150788
150783
150778
150772
150766
150759
150752
150744
150736
150727
150718
150708
150697
150686
150674
150661
150648
150635
150620
150606
150590
150574
150557
150540
150523
150506
150487
150469
150451
150433
150414
150396
150378
150359
150341
150324
150307
150290
150274
150258
150242
150227
150213
150199
150185
150172
150161
150151
150142
150133
150128
150122
150119
150119
150118