/*--------------------------------*- C++ -*----------------------------------*\
| =========                 |                                                 |
| \\      /  F ield         | OpenFOAM: The Open Source CFD Toolbox           |
|  \\    /   O peration     | Version:  v2012                                 |
|   \\  /    A nd           | Website:  www.openfoam.com                      |
|    \\/     M anipulation  |                                                 |
\*---------------------------------------------------------------------------*/
FoamFile
{
    version     2.0;
    format      ascii;
    class       volScalarField;
    location    "300";
    object      p_rgh;
}
// * * * * * * * * * * * * * * * * * * * * * * * * * * * * * * * * * * * * * //

dimensions      [1 -1 -2 0 0 0 0];


internalField   nonuniform List<scalar> 
65536
(
58573.7
58573.3
58572.6
58571.6
58570.2
58568.5
58566.5
58564.1
58561.2
58558.3
58555.1
58551.6
58547.4
58542.8
58537.7
58532
58525.7
58519
58511.9
58504.2
58496.1
58487.5
58478.6
58469.1
58459
58448.2
58436.7
58424.4
58411.6
58398.2
58384.4
58370.2
58355.6
58340.5
58324.8
58308.7
58292
58275
58257.4
58239.4
58221.1
58202.9
58185.4
58168.2
58151
58133.6
58115.5
58096.8
58078.8
58062.1
58045.6
58028.9
58012.9
57997.2
57982
57967.3
57953.2
57940.6
57927.1
57914.4
57904.3
57894.4
57886.4
57881.4
57878.1
57876.7
57877.5
57880.1
57885.9
57893.7
57902.8
57913.9
57924.3
57936.6
57950
57960.2
57971.9
57987.1
58004.1
58015.9
58032.3
58048.5
58055.9
58065.9
58075.8
58083.1
58089.7
58096.1
58101
58104.4
58106.4
58107
58106.4
58104.8
58102.4
58099.4
58096
58092.2
58088.5
58084.5
58080.5
58076.4
58072.3
58068.3
58064.3
58060.3
58056.3
58052.5
58048.6
58044.9
58041.2
58037.6
58033.9
58030.3
58026.7
58023.3
58020
58016.7
58013.6
58010.6
58007.7
58005
58002.2
57999.6
57996.9
57994.5
57992
57989.7
57987.5
57985.4
57983.3
57981.3
57979.3
57977.3
57975.4
57973.6
57971.8
57970
57968.3
57966.6
57964.9
57963.3
57961.7
57960.3
57959
57957.9
57956.9
57956
57955.2
57954.4
57953.6
57952.8
57952
57951.2
57950.4
57949.5
57948.7
57947.9
57947.1
57946.3
57945.5
57944.7
57944
57943.2
57942.5
57941.6
57940.9
57940.2
57939.4
57938.8
57938
57937.4
57936.6
57936
57935.4
57934.8
57934.2
57933.6
57932.9
57932.3
57931.7
57931
57930.4
57929.9
57929.4
57929
57928.6
57928.2
57927.9
57927.4
57927
57926.5
57926.1
57925.7
57925.3
57924.9
57924.4
57924
57923.4
57922.9
57922.3
57921.8
57921.3
57920.9
57920.4
57920.1
57919.7
57919.4
57919
57918.7
57918.3
57918
57917.7
57917.4
57917.2
57917.1
57916.9
57916.8
57916.8
57916.8
57916.8
57916.9
57916.9
57916.8
57916.7
57916.5
57916.3
57916
57915.7
57915.6
57915.2
57915.1
57914.7
57914.4
57914
57913.8
57913.4
57913
57912.5
57912
57911.4
57910.9
57910.3
57909.8
57909.2
57908.7
57908.2
57907.9
57907.7
57907.6
57907.6
57907.7
57907.7
57907.9
57907.9
57908
57907.9
57907.9
57907.7
57907.6
57907.5
57907.4
57907.2
57907
57906.8
57906.6
57906.3
57906.1
57905.8
57905.5
57905.2
57904.9
57904.6
57904.3
57904
57903.8
57903.5
57903.4
57903.2
57903.2
57903
57903.1
57902.9
57902.9
57902.8
57902.7
57902.6
57902.5
57902.4
57902.4
57902.4
57902.4
57902.3
57902.2
57901.9
57901.6
57901.2
57900.8
57900.4
57900
57899.5
57899.1
57898.6
57898.2
57897.7
57897.2
57896.6
57896
57895.4
57894.7
57894.1
57893.4
57892.8
57892.1
57891.5
57890.8
57890.3
57889.7
57889.3
57888.9
57888.6
57888.3
57888.1
57887.8
57887.7
57887.4
57887.2
57887
57886.8
57886.5
57886.3
57886.1
57885.9
57885.8
57885.6
57885.5
57885.4
57885.3
57885.1
57885
57884.7
57884.6
57884.3
57884
57883.7
57883.4
57882.9
57882.6
57882.1
57881.8
57881.3
57881.1
57880.7
57880.4
57880.1
57879.8
57879.5
57879.3
57879.2
57879.1
57879.3
57879.5
57879.9
57880.3
57880.8
57881.3
57881.6
57882
57882.2
57882.3
57882.3
57882.2
57882
57881.7
57881.2
57880.7
57880.1
57879.6
57879.1
57878.6
57878.3
57878.1
57878
57877.9
57877.9
57877.9
57877.9
57877.8
57877.9
57877.8
57877.9
57877.9
57878.1
57878.1
57878.2
57878.3
57878.3
57878.4
57878.4
57878.4
57878.4
57878.4
57878.4
57878.5
57878.7
57878.9
57879.1
57879.1
57879.2
57879.2
57879.3
57879.5
57879.8
57880.2
57880.6
57881
57881.4
57881.7
57881.9
57882.1
57882.3
57882.5
57882.7
57883
57883.3
57883.7
57884.1
57884.5
57884.9
57885.2
57885.4
57885.6
57885.7
57885.8
57885.9
57886
57886.2
57886.3
57886.4
57886.4
57886.5
57886.5
57886.6
57886.5
57886.5
57886.4
57886.4
57886.3
57886.4
57886.3
57886.3
57886.3
57886.4
57886.3
57886.4
57886.3
57886.3
57886.2
57886.3
57886.1
57886
57885.7
57885.4
57885.1
57884.8
57884.7
57884.5
57884.4
57884.4
57884.4
57884.4
57884.4
57884.4
57884.4
57884.5
57884.5
57884.6
57884.6
57884.7
57884.8
57884.8
57884.8
57884.8
57884.9
57884.8
57884.8
57884.8
57884.8
57884.7
57884.7
57884.7
57884.9
57884.9
57885.2
57885.4
57885.7
57886
57886.3
57886.6
57886.9
57887.1
57887.4
57887.6
57887.9
57888.1
57888.5
57888.8
57889.2
57889.5
57889.8
57890.1
57890.2
58569.1
58568.8
58568.2
58567.2
58565.9
58564.2
58562.3
58559.9
58557.2
58554.3
58551
58547.3
58543.1
58538.5
58533.2
58527.5
58521.2
58514.6
58507.4
58499.7
58491.6
58483
58474
58464.5
58454.3
58443.4
58431.9
58419.7
58406.9
58393.5
58379.7
58365.5
58350.8
58335.7
58320
58303.8
58287
58269.9
58252.2
58234.1
58215.8
58197.9
58180.4
58163.1
58145.8
58128.2
58109.7
58090.7
58073.1
58056.9
58040
58023.2
58007.6
57991.6
57976
57961.8
57948.5
57934.8
57920.9
57907.9
57897.5
57889.9
57881.8
57876.5
57873
57871.5
57869.4
57873.3
57878.6
57886.5
57897.4
57907.8
57917.7
57929.4
57943.4
57955.1
57969.2
57982.7
57997.1
58010.9
58024.6
58039.8
58049.8
58061.5
58069
58077.9
58084.2
58088.9
58093.9
58097.2
58099
58099.7
58099.1
58097.7
58095.5
58092.7
58089.4
58085.9
58082.3
58078.5
58074.8
58070.7
58066.7
58062.9
58058.8
58055.1
58051
58047.2
58043.3
58039.7
58035.9
58032.4
58028.7
58025.1
58021.6
58018.2
58014.8
58011.7
58008.7
58005.7
58002.9
58000.2
57997.4
57994.8
57992.1
57989.6
57987.2
57984.9
57982.7
57980.5
57978.5
57976.4
57974.3
57972.5
57970.6
57968.8
57966.9
57965.1
57963.5
57961.8
57960.1
57958.5
57957
57955.6
57954.4
57953.2
57952.2
57951.2
57950.3
57949.6
57948.8
57948
57947.2
57946.3
57945.5
57944.8
57943.9
57943.2
57942.4
57941.7
57941
57940.4
57939.7
57938.8
57938
57937.1
57936.4
57935.6
57934.9
57934.2
57933.4
57932.7
57931.9
57931.3
57930.7
57930.1
57929.5
57928.8
57928
57927.4
57926.8
57926.2
57925.7
57925.1
57924.7
57924.3
57924
57923.6
57923.3
57922.7
57922.3
57921.8
57921.4
57921
57920.5
57920.2
57919.7
57919.3
57918.8
57918.2
57917.8
57917.2
57916.6
57916.1
57915.6
57915.2
57915
57914.8
57914.5
57914.3
57913.8
57913.3
57913
57912.7
57912.6
57912.5
57912.3
57912.2
57912.2
57912.2
57912.3
57912.3
57912.3
57912.2
57912.1
57911.8
57911.6
57911.3
57911
57910.7
57910.5
57910.3
57909.9
57909.6
57909.2
57909
57908.5
57908.3
57907.7
57907.3
57906.8
57906.2
57905.7
57905.1
57904.6
57904
57903.5
57903.3
57903.1
57903
57902.9
57903
57903
57903.2
57903.2
57903.3
57903.3
57903.3
57903.1
57903
57902.8
57902.6
57902.5
57902.3
57902.2
57901.9
57901.7
57901.4
57901.2
57900.8
57900.6
57900.2
57899.8
57899.5
57899.2
57899
57898.6
57898.5
57898.4
57898.3
57898.2
57898.3
57898.1
57898.2
57898
57897.9
57897.9
57897.7
57897.7
57897.7
57897.7
57897.6
57897.4
57897.4
57897.1
57896.9
57896.4
57896.1
57895.7
57895.3
57894.9
57894.4
57894
57893.5
57893
57892.6
57892
57891.4
57890.8
57890
57889.2
57888.6
57888
57887.4
57886.8
57886.3
57885.7
57885.3
57884.8
57884.4
57883.9
57883.7
57883.4
57883
57882.9
57882.7
57882.6
57882.3
57882.2
57882
57881.7
57881.5
57881.3
57881.1
57880.9
57880.8
57880.6
57880.6
57880.4
57880.4
57880
57879.8
57879.4
57879.2
57878.9
57878.6
57878.2
57877.8
57877.4
57877.1
57876.6
57876.4
57876
57875.8
57875.5
57875.2
57875.1
57874.7
57874.7
57874.7
57874.8
57875
57875.3
57875.7
57876.2
57876.6
57877
57877.4
57877.5
57877.6
57877.6
57877.5
57877.2
57876.9
57876.4
57875.9
57875.3
57874.8
57874.4
57874
57873.7
57873.5
57873.4
57873.4
57873.4
57873.2
57873.3
57873.2
57873.3
57873.3
57873.5
57873.5
57873.6
57873.7
57873.8
57873.7
57873.9
57873.8
57873.8
57873.9
57874
57874
57874
57874.1
57874.2
57874.3
57874.4
57874.5
57874.6
57874.8
57874.8
57875.1
57875.2
57875.6
57876
57876.4
57876.8
57877.1
57877.2
57877.5
57877.6
57877.9
57878.1
57878.4
57878.7
57879.1
57879.3
57879.8
57880.1
57880.6
57880.7
57881
57881
57881.2
57881.3
57881.5
57881.6
57881.6
57881.7
57881.7
57881.7
57881.9
57881.8
57881.8
57881.8
57881.7
57881.8
57881.6
57881.6
57881.5
57881.7
57881.6
57881.6
57881.6
57881.6
57881.5
57881.6
57881.5
57881.6
57881.3
57881.2
57880.8
57880.5
57880.2
57880
57879.9
57879.9
57879.7
57879.7
57879.6
57879.7
57879.6
57879.6
57879.6
57879.6
57879.8
57879.7
57879.9
57879.8
57880
57879.9
57880.1
57880.1
57880.3
57880.2
57880.2
57880.1
57880.1
57880.1
57880.1
57880.3
57880.3
57880.4
57880.5
57880.6
57881
57881.3
57881.6
57881.9
57882.2
57882.4
57882.8
57882.9
57883.3
57883.5
57883.9
57884.2
57884.6
57884.9
57885.2
57885.3
57885.5
58560.4
58560.1
58559.5
58558.5
58557.3
58555.6
58553.7
58551.5
58548.8
58545.9
58542.4
58538.5
58534.2
58529.5
58524.2
58518.5
58512.3
58505.7
58498.5
58490.8
58482.7
58474.1
58465
58455.3
58445
58434
58422.6
58410.4
58397.6
58384.2
58370.3
58356.2
58341.5
58326.3
58310.4
58293.9
58276.9
58259.6
58241.8
58223.7
58205.9
58188.3
58171
58153.6
58135.9
58118
58099
58080.3
58063.2
58047.1
58030.6
58013.7
57998.2
57982.1
57965.8
57952
57939.5
57925.8
57910
57897.6
57887.4
57878.9
57872.4
57867
57862.4
57861.3
57860.7
57862.5
57868
57874.8
57883.6
57895.9
57906
57915.6
57932.5
57942.7
57958.8
57972.8
57986.7
58000
58013.5
58027.7
58038
58049.5
58057.9
58062.8
58070.7
58076.6
58079.6
58083.2
58085.1
58085.7
58085.5
58084.3
58082.6
58080.2
58077.6
58074.3
58071
58067.6
58064
58060.2
58056.4
58052.4
58048.7
58044.8
58041
58037.1
58033.5
58029.9
58026.5
58023
58019.4
58015.7
58012.2
58008.9
58005.7
58002.5
57999.7
57996.7
57994
57991.3
57988.5
57986
57983.4
57981
57978.4
57976.2
57974
57972
57970
57968
57965.9
57963.8
57961.8
57960
57958.4
57956.8
57955
57953.3
57951.7
57950
57948.4
57946.7
57945.6
57944.5
57943.5
57942.7
57941.9
57941.2
57940.2
57939.4
57938.8
57938
57937
57936.2
57935.6
57935
57934.3
57933.5
57932.7
57932
57931.3
57930.5
57929.7
57929
57928
57927.1
57926.3
57925.8
57924.7
57924
57923.3
57922.8
57922.2
57921.7
57920.9
57920.3
57919.8
57919.1
57918.7
57917.9
57917.2
57916.8
57916.3
57915.8
57915.6
57915.2
57915.1
57914.5
57913.9
57913.6
57913
57912.6
57912.4
57911.8
57911.5
57911.1
57910.5
57910
57909.4
57908.9
57908.3
57907.9
57907.3
57907.1
57906.7
57906.4
57906.1
57905.8
57905.5
57905.2
57905.1
57904.9
57904.6
57904.4
57904.1
57903.9
57903.7
57903.6
57903.6
57903.8
57903.8
57903.8
57903.7
57903.5
57903.1
57902.7
57902.4
57902.3
57902
57901.8
57901.4
57901.1
57900.8
57900.4
57900.1
57899.8
57899.4
57898.9
57898.6
57898
57897.5
57897
57896.3
57895.8
57895.3
57894.9
57894.7
57894.6
57894.7
57894.9
57895
57895.1
57895
57895
57894.7
57894.7
57894.4
57894.4
57894.4
57894.1
57894.1
57893.8
57893.6
57893.5
57893.2
57892.9
57892.7
57892.4
57892
57891.7
57891.3
57891
57890.5
57890.4
57890.2
57890
57889.7
57889.8
57889.6
57889.6
57889.5
57889.5
57889.3
57889.5
57889.4
57889.4
57889.2
57889.3
57889.3
57889.5
57889.5
57889.2
57888.8
57888.4
57887.9
57887.4
57887.1
57886.8
57886.3
57885.9
57885.3
57885
57884.5
57883.9
57883.2
57882.7
57881.9
57881.2
57880.7
57879.9
57879.2
57878.7
57878.4
57877.8
57877.1
57876.4
57875.9
57875.7
57875.4
57875.2
57874.9
57875.1
57875
57874.7
57874.4
57874.2
57874
57873.7
57873.2
57872.9
57872.8
57872.9
57872.7
57872.8
57872.7
57872.3
57871.9
57871.8
57871.5
57871.3
57871
57870.6
57870.4
57869.9
57869.5
57869.2
57868.7
57868.3
57868
57867.8
57867.6
57867.4
57867.2
57867.1
57866.8
57866.7
57866.4
57866.2
57866.3
57866.5
57867
57867.4
57867.8
57868.2
57868.3
57868.5
57868.6
57868.7
57868.7
57868.6
57868.6
57868.5
57868
57867.6
57867.2
57866.6
57865.9
57865.6
57865.4
57865.3
57865.1
57864.9
57865.1
57864.9
57865.1
57864.8
57865.1
57864.9
57864.9
57865.2
57865.2
57865.2
57865.4
57865.5
57865.5
57865.5
57865.7
57865.6
57865.5
57865.7
57865.4
57866.1
57866.2
57866.5
57866.6
57866.4
57866.5
57866.6
57866.5
57866.6
57866.7
57867
57867.6
57867.9
57868.2
57868.5
57868.9
57869.2
57869.2
57869.5
57869.6
57869.9
57870.3
57870.6
57871
57871.4
57871.8
57872.2
57872.4
57872.6
57872.5
57872.5
57872.5
57872.6
57872.9
57873
57873.1
57873.1
57873.3
57873.1
57873.3
57873.1
57873.3
57873
57873.1
57873.2
57873.4
57873.2
57873.3
57873.2
57873.6
57873.5
57873.4
57873.6
57873.4
57873.2
57873.3
57873.4
57873
57872.3
57872.1
57871.7
57871.5
57871.1
57871.1
57871
57871.2
57871.3
57871.3
57871.3
57871
57871.2
57871.2
57871.1
57871
57871.1
57871.3
57871.5
57871.4
57871.4
57871.4
57871.6
57871.4
57871.7
57871.9
57871.8
57871.8
57871.9
57872
57872.2
57872.1
57872.4
57872.6
57872.8
57873.1
57873.6
57873.8
57874
57874.1
57874.3
57874.5
57874.7
57875
57875.2
57875.6
57875.9
57876.2
57876.4
57876.9
57877
58546.3
58546
58545.3
58544.4
58543.1
58541.5
58539.5
58537.2
58534.4
58531.5
58527.9
58523.8
58519.4
58514.7
58509.3
58503.7
58497.5
58491
58483.8
58476.1
58468
58459.3
58450.1
58440.2
58429.8
58418.8
58407.3
58395.1
58382.2
58368.7
58354.8
58340.7
58325.9
58310.5
58294.4
58277.7
58260.6
58243.3
58225.4
58207.7
58190.3
58173
58155.9
58138.3
58120.2
58102
58083
58064.7
58048.1
58032.2
58015.8
57999.2
57983.9
57967.3
57951.1
57937.1
57925.6
57910.6
57893.6
57881.3
57873.6
57866.2
57856.9
57850.7
57847
57845.4
57845.7
57845.6
57850
57858.8
57867.2
57877.2
57890.2
57899.9
57914.4
57928.3
57942.1
57958.4
57970.6
57982.5
57996.3
58008.7
58020.5
58029.2
58039.1
58047.2
58049.2
58057
58061.4
58063.3
58065.7
58066.5
58066.4
58065.7
58064.4
58062.9
58060.3
58057.7
58055
58052
58049.3
58045.3
58041.8
58038.5
58035.1
58031.3
58027.2
58023.6
58020
58016.3
58013
58010.1
58006.3
58002.4
57999
57995.8
57992.7
57989.9
57987
57984.3
57981.6
57979.2
57976.6
57974
57971.2
57968.7
57966.2
57963.9
57961.7
57959.8
57958.1
57955.8
57953.4
57951.6
57949.4
57947.5
57945.7
57944
57942.8
57941.5
57940
57938.6
57937
57935.5
57934.2
57933.1
57931.7
57930.4
57929.9
57929.5
57928.2
57927.3
57927
57925.7
57925
57924.2
57923.4
57922.9
57922.2
57921.7
57921.2
57920.8
57920
57919.1
57918.2
57917
57916
57915.5
57914.8
57914.5
57913
57912.1
57911.1
57910.7
57910.3
57910.2
57908.9
57908.1
57907.6
57907.5
57906.7
57905.8
57905.4
57904.7
57904.2
57903.9
57903.8
57903.7
57903.8
57902.7
57902.3
57901.9
57901.3
57901.2
57900.4
57900.3
57899.6
57899.4
57898.4
57897.9
57897.2
57897.1
57896.3
57895.7
57895.2
57894.8
57894.5
57894.6
57894.7
57895.1
57894.3
57893.7
57893.1
57893.1
57892.7
57893
57892.3
57892.2
57892.1
57892.1
57892.3
57892.1
57892.1
57891.9
57892.3
57891.7
57891.6
57890.9
57890.2
57890
57889.9
57890
57889.3
57888.8
57888.4
57888.3
57888.2
57888.2
57887.4
57886.9
57886.7
57886.3
57885.9
57885.6
57884.7
57883.8
57883.4
57883.2
57883.4
57883.1
57882.9
57882.8
57882.9
57883.1
57883.1
57883
57883.2
57883.3
57882.8
57882.1
57882
57881.8
57881.9
57881.8
57882.2
57881.5
57881.4
57881.3
57881.4
57880.6
57880.4
57879.8
57879.2
57878.3
57878.4
57878.3
57878
57877.8
57877.7
57877.7
57877.6
57877.7
57877.5
57877.6
57877.8
57877.8
57877.9
57877.3
57877.3
57877.3
57877.4
57877.6
57877.8
57877.5
57877.3
57876.5
57875.9
57875.5
57875.2
57875.1
57874.7
57874.2
57873.9
57873.2
57872.9
57872.5
57871.5
57871.3
57870.1
57869.2
57868.5
57868
57867.6
57867.1
57866.5
57866.6
57865.5
57864.5
57864.5
57864
57863.6
57863.6
57863.3
57863.2
57863.2
57862.5
57862.6
57862.5
57862.7
57862
57861.9
57861.7
57861.3
57860.9
57860.9
57860.7
57860.2
57860.5
57860.1
57860
57859.4
57859.1
57858.6
57858.2
57857.8
57857.6
57857.5
57857.2
57856.9
57856.6
57856.2
57856.1
57856
57856
57856.1
57855.7
57855.9
57855.2
57855.1
57855.2
57855.4
57855.4
57855.5
57855.7
57856.1
57856.3
57856.6
57856.9
57856.6
57856.6
57856.6
57856.5
57856.2
57856.2
57855.9
57855.8
57855.3
57854.9
57854.6
57854.2
57854
57854.1
57854
57853.8
57853.9
57853.8
57853.7
57853.9
57853.9
57853.5
57853.4
57853.2
57853.7
57854
57854.4
57854.1
57853.6
57853.9
57853.9
57854.4
57854.8
57855
57854.8
57855
57855.1
57854.9
57855.2
57855.1
57855.1
57855.6
57855.2
57855.5
57855.7
57856.2
57855.8
57856.4
57856.6
57857
57857.2
57857.2
57857.7
57857.8
57858
57858.3
57859
57859
57859.2
57859.6
57860.1
57860.8
57860.8
57860.4
57860.7
57860.6
57860.6
57860.9
57860.9
57861.1
57861.5
57861.5
57861.3
57861.3
57861.4
57861.5
57861.7
57861.8
57861.8
57861.5
57861.5
57861.4
57861.6
57861.5
57861.6
57861.3
57861.6
57861.3
57861.3
57861.3
57861.4
57861.2
57860.9
57860.3
57860
57859.3
57859.3
57859.6
57859.5
57859.5
57859.3
57859.2
57859.3
57859.5
57859.6
57859.1
57858.8
57859
57859.5
57859.3
57859.2
57860.1
57859.7
57859.7
57860.1
57860.1
57859.9
57859.8
57860.5
57860.3
57860.1
57860.4
57861
57861.1
57860.6
57860.6
57860.6
57860.9
57861.2
57861.5
57862
57861.2
57861.9
57862
57862.5
57863.1
57863.7
57863.9
57864
57864.6
57864.4
57864.8
57865
57865.7
58527
58526.7
58526
58525
58523.7
58522.1
58520.1
58517.8
58515.1
58512.1
58508.5
58504.4
58500
58495.2
58489.8
58484.1
58477.9
58471.2
58464
58456.4
58448.2
58439.4
58430
58420
58409.4
58398.3
58386.7
58374.4
58361.5
58348.1
58334.3
58319.9
58304.9
58289.4
58273
58256.1
58239.1
58221.8
58204.2
58186.5
58169.1
58151.6
58134.1
58116.3
58098.3
58080.1
58061.2
58043.2
58026.9
58011
57994
57978.4
57963.1
57946
57931.1
57917.8
57905.8
57888.7
57873.3
57862.4
57855.8
57848.3
57838
57830.3
57827.1
57825.9
57826.4
57827.6
57829.2
57834.6
57845.1
57855.9
57867.9
57879.6
57891.3
57908.8
57920.3
57938.9
57952.2
57962.6
57973.7
57984.8
57996
58005.7
58012
58021.4
58027.8
58029.1
58036.1
58038.6
58040.1
58041.6
58042.1
58042
58041.6
58041.1
58038.9
58036.6
58034.6
58032.4
58030.6
58026.5
58023.2
58020.8
58017.8
58013.9
58009.8
58006.1
58002.2
57998.9
57996.3
57993.3
57989.2
57985.6
57982.3
57979.1
57975.9
57973.3
57970.9
57968.2
57965.9
57963.8
57960.9
57959
57955.9
57953.5
57950.9
57948.7
57946.5
57944.7
57943.4
57940.9
57938.5
57936.1
57934.1
57932.5
57930.6
57929.2
57927.8
57927
57924.8
57923.9
57921.7
57920.1
57919.1
57918.2
57916.7
57915.6
57914.7
57914.7
57912.9
57912.1
57911.7
57910.2
57909.5
57909.1
57908.6
57908.1
57907.6
57906.9
57906.5
57906.5
57905.7
57904.8
57903.6
57902.7
57901.3
57900
57899.2
57899
57897.6
57896.9
57896.5
57896
57895.2
57895.4
57894.1
57893.4
57892.3
57892
57892.1
57891.2
57890.3
57889.7
57889.7
57889.3
57889
57888.8
57889
57888.3
57887.4
57887.5
57886.6
57886.9
57885.7
57885
57884.7
57884.6
57884
57884
57883.1
57882.8
57881.2
57880.6
57879.9
57879.8
57879.7
57880.2
57880.4
57881.2
57879.6
57879.3
57878.9
57879.3
57878.2
57878.7
57877.7
57877.2
57876.8
57877
57876.9
57877.4
57877.5
57877.4
57877.7
57877.1
57877
57875.7
57875.1
57875
57874.9
57875.2
57874.4
57873.8
57873.2
57873.1
57873.1
57873.5
57872.8
57872.3
57872.5
57871.8
57872.1
57871.8
57870.3
57869.4
57868.8
57868.3
57869
57868.3
57868.3
57868.7
57868.5
57869
57868.8
57868.4
57868.3
57869.3
57868.4
57867.8
57868.1
57867.7
57867.8
57867.4
57867.9
57867.1
57866.8
57866.5
57866.9
57865.9
57865.9
57865.4
57864.4
57863.9
57863.8
57863.9
57863.3
57862.9
57862.7
57862.8
57862.4
57862.2
57862.1
57862.1
57862
57862.4
57863.5
57863.1
57862.5
57862.4
57862.8
57862.8
57863.6
57862.3
57862.3
57861.2
57860.2
57859.8
57859.6
57860.2
57859.6
57858.7
57859
57858.1
57858.2
57857.6
57856.6
57856.4
57855.3
57854.4
57853.5
57852.9
57852.2
57851.9
57852.2
57852.2
57851
57850.1
57849.4
57849.2
57848.4
57848.4
57848.1
57848
57849
57848.1
57847.5
57847.4
57848
57847.9
57847.9
57846.8
57846.6
57846.3
57846
57846.6
57845.4
57845.2
57844.9
57845.2
57844.6
57844.5
57843.6
57843.1
57843.2
57843
57842.9
57842
57841.8
57841.6
57841.1
57841.1
57841.5
57841.2
57841.8
57841.3
57842.1
57841.5
57840.8
57840.5
57840.3
57840.4
57840.1
57840.9
57841.8
57841.6
57841.2
57841.6
57841.1
57841.5
57841.7
57841.5
57841.7
57841.7
57841.2
57841
57841.1
57840
57839.8
57839.5
57839.4
57840.1
57839.8
57839.5
57839.5
57838.5
57838.8
57839.6
57839.5
57838.5
57838.8
57839.2
57839.1
57839.3
57840.1
57839.7
57839.8
57839.4
57839.3
57839.8
57840.2
57840.7
57841.1
57840.8
57840.9
57840.6
57841
57839.9
57840.1
57841
57840.8
57841.3
57841.1
57840.7
57841.2
57841.4
57841.6
57841.8
57841.8
57842.3
57842.3
57842.8
57843.1
57843.9
57844.9
57844.5
57844.1
57844.7
57845.8
57846.5
57846.7
57846
57845.7
57845.9
57846
57846.3
57846.8
57846.3
57846.8
57845.7
57846.6
57846.6
57846.4
57846.3
57847.1
57846.6
57846.9
57847.5
57847.6
57846.8
57846.9
57846.8
57847.6
57846.9
57846.5
57846.5
57845.9
57846.5
57846.8
57847.4
57846.3
57845
57844.9
57845
57845.1
57844.1
57845.1
57844.1
57844.8
57844.9
57845.1
57845
57846
57844.7
57843.4
57843.9
57843.8
57843.8
57844.3
57844.8
57843.8
57844.4
57845.4
57845.5
57845.2
57845.5
57846.3
57845.4
57845.3
57845.7
57846.7
57846.6
57846
57845.8
57845.5
57845.9
57846.8
57848
57848.6
57847.6
57847.5
57848.1
57848
57848.4
57849.4
57848.9
57849.1
57849.9
57849.7
57849.7
57850
57851
58501.2
58500.9
58500.2
58499.2
58497.9
58496.2
58494.2
58491.8
58489
58485.9
58482.2
58478
58473.5
58468.7
58463.2
58457.4
58451.1
58444.3
58437
58429.3
58421
58412.1
58402.7
58392.6
58381.9
58370.6
58358.7
58346.3
58333.4
58320
58306.2
58291.6
58276.4
58260.6
58244.1
58227.3
58210.4
58193.2
58175.7
58158.3
58141
58123.3
58105.6
58087.8
58069.9
58051.7
58033.5
58016.5
58000.3
57984
57967.9
57952.8
57936.6
57920.2
57905.2
57893.6
57878.4
57863.6
57849.8
57841.3
57834
57823.6
57814.7
57806.5
57802
57798.8
57798.6
57799.9
57803.8
57808.7
57815.3
57827.5
57842.1
57852.4
57865.3
57879.3
57895.6
57910.9
57926.9
57937.5
57948.3
57960
57967.6
57977.7
57983.5
57989
57998.6
58001.8
58003.7
58008.9
58010.4
58012.2
58013.1
58013.1
58013.3
58013
58012.7
58011.7
58010.6
58008.3
58006.7
58003.2
58000.1
57996.8
57994.9
57991.1
57988.8
57985.9
57981.5
57978.1
57976.2
57972.3
57969
57964.7
57961.8
57959.2
57956.7
57954.2
57952.3
57949.4
57947.4
57944.3
57942.1
57940.6
57937.3
57935.2
57932.1
57930
57928
57926.4
57925
57923.1
57920.9
57918.3
57915.1
57913.6
57912.2
57911
57909.7
57907.1
57906.4
57905.5
57903.4
57901.4
57901.2
57898.8
57898.7
57897.1
57896.4
57896.1
57894
57892.7
57892.2
57892.1
57892
57891.1
57890.7
57890.5
57890.3
57889.2
57888.3
57888.7
57887.3
57886.9
57885.6
57884.6
57882.8
57881.4
57881
57879.4
57878.5
57877.9
57877.9
57878.2
57876.9
57875.8
57875.6
57875.3
57875
57875.8
57874.9
57873.8
57873.6
57873
57871.5
57870.8
57871.3
57871.2
57870.3
57870.6
57869.4
57869.8
57868.1
57867.4
57867.2
57867.3
57866.1
57865.8
57865.2
57866
57864.4
57863.6
57863.4
57863.1
57863.1
57862.9
57862.3
57862
57862.7
57862.8
57862.1
57861.9
57861.8
57861.5
57860
57859.3
57859.4
57859.7
57859
57859.2
57859.7
57859.9
57859.2
57858.7
57858.4
57858.8
57857.4
57857.1
57856.8
57856.7
57856.2
57856.1
57856
57855.6
57855.4
57855.4
57855
57854.4
57854.1
57853.9
57854.5
57854.2
57854.6
57854
57852.6
57851.8
57850.8
57850.9
57851
57850.2
57850.8
57851.2
57850.9
57851.4
57851.7
57850.5
57850.3
57851
57849.8
57849.5
57849.5
57849.2
57850
57848.8
57848.3
57848.7
57849.3
57848.7
57847.2
57846.9
57846.9
57846.9
57846.1
57845.8
57845.4
57846.3
57845.8
57844.7
57845.1
57845.5
57844.8
57844.9
57844.4
57844.3
57844.7
57845.4
57845.4
57845.4
57844.1
57844.1
57845.4
57845.1
57845.5
57844.3
57843.3
57843.2
57841.8
57841.3
57840.9
57841.3
57840.8
57840.1
57839.4
57839.6
57839.8
57838.3
57836.9
57836.4
57837
57836.2
57836
57835.2
57835
57834.4
57834.2
57832.5
57832.1
57832.3
57831.6
57831.1
57831.2
57830.2
57830.3
57831.4
57831.6
57830.3
57829.8
57829.2
57828.8
57828.8
57828.5
57828.9
57829.5
57828.7
57828.6
57829.4
57828.1
57827.3
57826.7
57826.5
57826.6
57827
57825.9
57824.9
57824.7
57824.2
57824.6
57824.3
57824.2
57823.6
57823.5
57823.3
57824
57823.4
57822.6
57823
57823.8
57824.2
57823.2
57823.1
57823.2
57823.2
57823.5
57824.1
57825
57824.3
57823.7
57823
57823
57823.1
57823.8
57823.2
57823.5
57823.8
57822.9
57823.5
57823.9
57823.1
57823.1
57822
57821.9
57823.3
57822.6
57821.2
57820.6
57820.5
57820.9
57820.9
57821.3
57820.7
57820.3
57821.2
57821.2
57821.6
57820.9
57821.2
57821.5
57821.5
57821.7
57822.5
57823.8
57823.5
57823.8
57823.2
57823
57823.1
57823.7
57822.7
57822.1
57821.8
57822.4
57822.8
57824
57823.7
57823.7
57823.7
57824
57824.6
57825
57825.3
57825.4
57825.2
57825.1
57825.1
57826.5
57826.9
57826.2
57826.2
57827.3
57827.4
57828
57827.6
57828
57827.1
57827.2
57827.6
57829.1
57828.5
57827.4
57827.9
57829.1
57829.5
57828.7
57828.9
57830.3
57829.9
57829.4
57830.2
57830.2
57829.2
57829.7
57829.4
57829.9
57828.9
57829.5
57829.8
57829
57829.1
57829.2
57830.3
57829.4
57829.3
57828.1
57827.4
57828.1
57826.7
57828.3
57826.8
57827.6
57827.1
57827.7
57827.2
57825.4
57826.4
57825.9
57826.4
57827
57826.3
57825.8
57825.2
57825.9
57825.7
57825.4
57825.6
57826.1
57827.6
57828.5
57827.8
57827.5
57827.9
57827.4
57828.2
57828.2
57828.8
57828.9
57829.4
57829.6
57831
57830.9
57830.6
57829.6
57829.7
57829.6
57830.3
57831.3
57831.2
57830.8
57830.5
57831
57831.9
57831.5
57830.7
58469
58468.7
58468
58467
58465.6
58463.9
58461.9
58459.5
58456.7
58453.4
58449.7
58445.6
58441.1
58436.1
58430.6
58424.8
58418.4
58411.5
58404.1
58396.2
58387.7
58378.7
58369.2
58359
58348.2
58336.8
58324.8
58312.2
58299.2
58285.8
58271.7
58257
58241.5
58225.6
58209.1
58192.4
58175.6
58158.3
58140.7
58123.3
58105.9
58088.1
58070.3
58052.6
58034.8
58017.1
57999.5
57982.3
57966.1
57950.3
57935.4
57919.8
57903.8
57888.7
57874.1
57862.2
57848.1
57833.4
57821.3
57812.5
57802.4
57794
57786
57777.5
57773.4
57768.7
57766.4
57768.4
57770.1
57777.4
57785
57795.6
57809.6
57821.4
57835.2
57848.2
57861.3
57878.1
57892.8
57903.9
57913.6
57926.9
57934.3
57943.2
57951.2
57954.7
57959.2
57967.7
57969.5
57972.6
57976.2
57978.3
57980
57981.3
57982.2
57981.9
57982.2
57982
57982.5
57980.4
57978.1
57975.7
57972.6
57970.8
57967.6
57965.1
57963.3
57960.9
57957
57953.8
57951.7
57947.5
57945.2
57941.7
57938.7
57936.6
57934.6
57931.8
57929.7
57926.6
57924.9
57921.3
57919.2
57918
57915.1
57913.3
57910.5
57908.4
57907
57905.5
57902.7
57900.2
57898.3
57897
57894.8
57892.5
57890.8
57890.7
57889.1
57885.5
57884.6
57882.4
57882.1
57881
57879.9
57877.4
57877.4
57876.4
57875.2
57872.9
57872.8
57871.3
57870.2
57870.3
57871
57870.1
57869
57869.3
57867.6
57866.9
57866.3
57866.3
57865.8
57865.1
57863.6
57863.5
57860.9
57860.3
57860.1
57858
57858
57857.5
57857.6
57857
57855.4
57855.3
57854.4
57855
57854.4
57855.8
57853.9
57853.3
57853.5
57851.9
57851
57850.5
57850.6
57850.1
57847.8
57847.1
57847.5
57848.1
57846.4
57845.5
57846.5
57846.1
57845.2
57843.9
57843.2
57841.8
57843
57842
57842.6
57841.9
57843.3
57843.4
57841.3
57841.1
57841.8
57841
57840.7
57841.1
57839.7
57838.2
57838
57837.5
57838.9
57839.7
57838.4
57838.1
57838.9
57838
57837.8
57837.6
57836.1
57837.1
57835.5
57835.3
57835.5
57836.3
57835.6
57835.3
57835.8
57835.3
57834.7
57834.7
57834
57832
57833.2
57832.7
57832.5
57832.8
57831.9
57831.5
57832.3
57831.9
57830.5
57829.3
57828.7
57829
57830.2
57829.3
57829.1
57829.4
57830.2
57828.8
57828.6
57829.3
57827.9
57827.2
57827.8
57828.8
57828.7
57827.9
57826.9
57828.3
57828.7
57827.9
57825.5
57824.8
57824.2
57823.8
57824.3
57823.6
57824.4
57825.5
57825.5
57823.9
57824.5
57824.3
57823.5
57824.1
57823.2
57823.5
57823.6
57824.6
57822.5
57822
57822.3
57822.5
57823.5
57822.8
57821.5
57822.2
57820.7
57821.1
57819.8
57819.6
57818.6
57817.9
57817.9
57817
57816.7
57817.7
57817.8
57815.8
57815
57815
57815.7
57815.4
57814.6
57814.8
57815.1
57813.4
57812.6
57811.2
57811.5
57812.4
57811.9
57810.6
57812
57810.5
57809.8
57811
57808.6
57809.1
57808.5
57808
57807.6
57808.2
57807.5
57808.4
57808.8
57806.9
57806.8
57807.3
57805.9
57805.5
57805.4
57805.5
57804.6
57805.3
57804.1
57804
57804.2
57803
57803.1
57802.6
57804.1
57804.6
57802.7
57801.8
57801.7
57802.1
57800.6
57801.1
57800.8
57801.7
57802.7
57803.6
57804.4
57804.8
57804.1
57803.1
57803.3
57802.3
57801.7
57802.4
57802.3
57801.7
57802.3
57802
57803.2
57802.9
57802.2
57802.8
57801.1
57801.4
57802.7
57802.2
57801.7
57802.6
57801.2
57801.9
57799.9
57799.9
57800.8
57799.8
57799.5
57799.8
57800.3
57801.4
57800.5
57801.3
57799.7
57800.8
57801.8
57801.7
57802
57802.8
57803.9
57803.4
57802.1
57801.8
57801.3
57801.9
57800
57801.7
57800.4
57800.6
57802.2
57803.2
57802.3
57803.6
57804.3
57803.8
57803.7
57804
57803.5
57805.2
57804.8
57805
57804.3
57803.5
57804.4
57805.5
57804.7
57804.8
57804.5
57804.6
57804.8
57805.2
57806.5
57806.6
57806.6
57807.1
57807.2
57807.4
57806.1
57806.1
57806.4
57807.6
57807.5
57808.7
57809.6
57809.7
57808.3
57807.5
57808.3
57807.7
57809.2
57809
57807.6
57808
57808.6
57809.6
57808.8
57808
57807.1
57806.2
57807.1
57808.8
57806.9
57806.9
57804.7
57806
57807.7
57807.9
57807
57806.7
57806.3
57807.1
57805
57806.4
57806.3
57806
57806.1
57806.3
57805.1
57804.3
57804.5
57805.3
57804.6
57805.1
57805.2
57805.2
57805.2
57807.1
57806.2
57807.3
57805.9
57806.4
57807.1
57808.1
57807.7
57809.3
57808.3
57807.2
57807.8
57808.8
57809
57809.6
57808.9
57809.9
57809.4
57810.8
57810.4
57809.3
57809.9
57810.6
57809.4
57808.6
58429.6
58429.2
58428.5
58427.5
58426.1
58424.4
58422.3
58419.8
58416.9
58413.6
58409.8
58405.7
58401
58395.9
58390.3
58384.4
58377.9
58370.9
58363.4
58355.3
58346.7
58337.5
58327.8
58317.4
58306.5
58295
58282.8
58270.1
58256.9
58243.3
58229.2
58214.5
58198.9
58182.7
58166.2
58149.7
58132.9
58115.6
58098
58080.6
58063.2
58045.8
58028.2
58010.7
57993.1
57975.6
57958.5
57941.9
57926.3
57911.1
57896.1
57880.8
57865.6
57851.2
57838.1
57825.3
57812.3
57799
57788
57778.6
57767.5
57757.9
57750.8
57743.3
57739.5
57734.8
57732.4
57732.9
57735
57737
57748.6
57761.7
57771.9
57785
57793.6
57810.3
57823.7
57837
57853.2
57865
57874.7
57885.2
57895.4
57902.5
57911.5
57916.8
57919.6
57924.4
57930.7
57932.6
57936.4
57940.8
57942.6
57944.3
57947
57947.1
57948.9
57948.8
57950.3
57949.5
57948
57944.9
57943
57941.2
57937.2
57935.3
57932
57929.1
57928.3
57924.8
57923.3
57919.4
57916.7
57914.9
57911.9
57909.9
57907.3
57904.3
57902.9
57900.2
57898.9
57895.3
57893.3
57891.9
57888.8
57887.4
57885
57884
57882.9
57881
57877.4
57875
57873.1
57872.1
57871.3
57868.7
57866.5
57865.8
57863.5
57860.6
57859.1
57857.6
57856.6
57856
57852.6
57850.8
57850.4
57851.4
57850
57847.1
57848
57847.1
57846.1
57846.2
57845.7
57844.4
57844.5