/*--------------------------------*- C++ -*----------------------------------*\
| =========                 |                                                 |
| \\      /  F ield         | OpenFOAM: The Open Source CFD Toolbox           |
|  \\    /   O peration     | Version:  v2012                                 |
|   \\  /    A nd           | Website:  www.openfoam.com                      |
|    \\/     M anipulation  |                                                 |
\*---------------------------------------------------------------------------*/
FoamFile
{
    version     2.0;
    format      ascii;
    class       surfaceScalarField;
    location    "300";
    object      phi;
}
// * * * * * * * * * * * * * * * * * * * * * * * * * * * * * * * * * * * * * //

dimensions      [1 0 -1 0 0 0 0];
oriented        oriented;


internalField   nonuniform List<scalar> 
130432
(
53.7603
-53.1948
109.056
-55.1174
162.457
-53.2293
214.126
-51.501
267.206
-52.9154
317.672
-50.304
368.991
-51.1542
422.146
-53.0235
473.951
-51.7465
526.264
-52.2695
582.492
-56.2287
641.612
-59.1471
698.308
-56.7433
755.531
-57.2838
815.658
-60.1896
875.3
-59.7072
931.602
-56.3683
986.705
-55.1724
1044.42
-57.7908
1102.76
-58.4153
1159.78
-57.1046
1217.15
-57.4508
1275.25
-58.1869
1335.33
-60.1687
1400.29
-65.0576
1468.19
-68.0074
1534.18
-66.1093
1595.56
-61.4945
1655.3
-59.8695
1714.66
-59.4881
1772.45
-57.9145
1832.69
-60.3656
1895.91
-63.3545
1957.88
-62.0962
2019.16
-61.4322
2085.03
-66.0342
2152.38
-67.5406
2220.81
-68.6269
2291.4
-70.8214
2359.34
-68.0158
2419.74
-60.4513
2464.17
-44.4543
2505.35
-41.2256
2562.54
-57.2722
2627.04
-64.6156
2696.65
-69.766
2777.26
-80.7664
2843.16
-66.1517
2875.14
-32.3013
2914.58
-39.731
2980.96
-66.7551
3030.26
-49.6703
3065.64
-35.7296
3123.53
-58.4871
3182.43
-59.4797
3216.75
-34.6014
3253.15
-37.0109
3310.96
-58.3005
3363.26
-52.9831
3396.99
-34.7263
3431.76
-35.5536
3465.07
-34.1705
3477.55
-13.3741
3473.03
3.48416
3473.11
-1.31497
3478.89
-6.95081
3466.29
11.3635
3432.08
32.6313
3403.99
26.635
3388.88
13.4429
3362.8
24.5527
3314.02
46.5808
3259.11
52.8111
3212.69
45.5908
3166.87
43.4016
3110.73
50.7405
3043.19
62.4026
2970.42
68.9862
2902.05
66.5267
2835.91
64.5466
2760.87
73.7679
2669.72
86.1392
2570.41
91.492
2474.88
90.4316
2379.89
91.9492
2282.45
95.527
2186.36
94.8164
2090.42
94.949
1992.93
96.4184
1896.01
95.7774
1800.31
94.5747
1707.81
91.4548
1619.3
87.5902
1535.81
82.7139
1457.78
77.4189
1383.55
73.7466
1316.24
66.9435
1256.16
59.8123
1199.61
56.3638
1146.03
53.4324
1097.7
48.2397
1054.79
42.8434
1014.28
40.452
975.393
38.8527
938.668
36.6953
904.371
34.2533
871.786
32.5356
840.487
31.2467
809.303
31.1413
777.65
31.6115
747.559
30.054
720.44
27.0849
695.143
25.2744
670.777
24.3413
648.002
22.7577
625.228
22.7554
602.677
22.5334
583.421
19.2331
566.291
17.0931
548.517
17.7372
530.48
17.9889
513.924
16.5049
498.464
15.4128
482.938
15.4848
467.95
14.9454
455.142
12.7788
442.769
12.3475
429.987
12.7663
417.248
12.7205
404.195
13.0409
392.794
11.3905
383.065
9.71153
372.26
10.783
360.224
12.0232
347.726
12.4771
335.959
11.7406
325.093
10.8354
313.654
11.402
302.254
11.3662
290.896
11.3283
280.655
10.2114
271.292
9.35821
263.076
8.21702
256.155
6.94089
248.758
7.41951
241.748
7.03419
235.333
6.42798
229.174
6.15911
223.738
5.41832
219.291
4.42957
215.075
4.18349
210.24
4.79658
205.124
5.07083
199.684
5.39315
193.268
6.37661
187.192
6.03533
182.615
4.5402
178.52
4.06843
174.353
4.14572
170.601
3.75793
168.243
2.37846
165.319
2.94417
161.573
3.77719
157.795
3.80355
153.178
4.64616
147.365
5.83379
140.124
7.26734
133.889
6.27688
129.081
4.85699
126.645
2.4851
124.767
1.93982
121.078
3.76021
116.942
4.20255
112.335
4.67389
108.422
3.97869
105.876
2.61002
103.738
2.18783
101.635
2.1427
99.8166
1.84173
98.5633
1.28136
96.8533
1.7187
94.8832
1.97875
93.2048
1.69132
90.5976
2.60818
88.2421
2.34601
86.8557
1.36671
85.1161
1.70844
82.663
2.41549
79.4133
3.1974
75.8379
3.52116
72.2868
3.50465
69.2001
3.04656
66.7506
2.41226
64.6284
2.09546
63.3106
1.29105
63.3144
-0.0161805
63.7293
-0.431773
63.5248
0.197449
62.2439
1.27236
59.8286
2.41094
57.3611
2.46688
56.0695
1.30186
55.3914
0.71013
54.8827
0.541807
54.099
0.833474
51.5983
2.55698
48.3269
3.32828
45.7116
2.66952
44.2273
1.53975
43.0084
1.28434
42.0681
0.984855
41.9521
0.157479
42.0703
-0.0804424
41.6261
0.4909
40.8096
0.861605
41.1582
-0.302538
40.945
0.265068
39.694
1.30628
36.9368
2.80392
33.3086
3.6738
31.978
1.37173
31.6784
0.325984
31.6782
0.0261315
32.1055
-0.40762
32.421
-0.295185
33.173
-0.731246
34.227
-1.03538
34.9586
-0.709222
34.6897
0.286742
33.2899
1.41062
32.315
0.985952
32.962
-0.623528
32.5313
0.447873
30.2662
2.27588
28.1761
2.1067
26.5227
1.67668
24.961
1.58548
24.9224
0.0675489
26.0584
-1.11946
26.5942
-0.529976
27.6342
-1.0437
27.7006
-0.0658636
25.8085
1.89687
24.2612
1.56272
23.1581
1.11705
22.6739
0.503788
23.0624
-0.373247
22.8934
0.189209
22.3794
0.529
21.8787
0.497296
20.3481
1.51784
18.9011
1.41698
17.6525
1.20198
16.9531
0.645943
18.2767
-1.38455
18.7797
-0.557318
17.8158
0.916941
18.0475
-0.266524
17.6619
0.354943
17.2966
0.334637
18.3404
-1.08632
17.7163
0.596548
15.9152
1.76989
14.2973
1.603
12.3444
1.94115
10.6686
1.66849
9.21179
1.44852
9.14894
0.0690582
10.5096
-1.35274
11.1995
-0.670432
11.6669
-0.433508
12.7534
-1.04555
12.9744
-0.171807
12.3629
0.666669
11.4185
1.0097
11.0193
0.461014
11.1741
-0.0995915
11.4856
-0.26911
11.8295
-0.296582
12.7894
-0.922036
13.4816
-0.655072
12.896
0.619304
10.7185
2.21729
8.16114
2.59889
7.35123
0.865113
8.01452
-0.599358
9.59561
-1.52357
11.0774
-1.43302
12.2023
-1.08407
12.0022
0.229536
11.0827
0.928864
10.4552
0.633177
9.53595
0.922147
8.40641
1.13402
7.05818
1.35755
5.72619
1.34325
4.45696
1.2923
3.27628
1.20387
2.85654
0.438999
2.82667
0.050407
2.11285
0.730412
1.28093
0.852359
1.33368
-0.0308308
2.48921
-1.13655
5.44322
-2.92471
8.8517
-3.36987
9.77732
-0.880636
9.31341
0.514704
8.25497
1.13413
6.89812
1.44571
6.21182
0.781266
7.27997
-0.969252
7.14194
0.251027
6.10627
1.13399
6.15394
0.0387223
6.53962
-0.313923
6.27051
0.341902
6.00269
0.338103
7.00385
-0.931975
6.42349
0.629242
4.87836
1.58881
3.65676
1.24891
2.53987
1.136
2.59217
-0.0441087
3.88665
-1.29501
4.83723
-0.959624
6.35348
-1.52003
8.46848
-2.13376
11.2045
-2.76135
15.0107
-3.83061
17.0523
-2.0423
16.6628
0.389155
15.9681
0.686476
14.5334
1.4233
12.1838
2.34252
9.66132
2.5112
7.36392
2.28449
5.63404
1.73483
3.9159
1.73423
3.33399
0.603357
3.58459
-0.21584
4.12612
-0.508074
4.90492
-0.735095
5.75701
-0.805257
7.13759
-1.3315
8.39963
-1.19463
8.61248
-0.133694
8.9349
-0.229966
10.2647
-1.22645
11.8527
-1.47781
12.5019
-0.533293
11.7996
0.815679
10.2677
1.62726
8.92427
1.43093
8.43844
0.556361
7.96096
0.527546
8.20475
-0.192855
9.82763
-1.59735
11.0229
-1.17716
11.8596
-0.813342
12.355
-0.472078
11.888
0.485624
11.2116
0.696453
10.7638
0.466392
10.5454
0.228541
9.82378
0.735295
8.8738
0.980154
8.09932
0.808944
7.57948
0.551708
7.50982
0.0944636
7.31868
0.209787
7.96183
-0.626758
8.22821
-0.258991
8.07709
0.157989
8.46859
-0.388443
8.75331
-0.279597
8.79684
-0.0478212
8.80429
-0.00853013
9.53892
-0.737106
8.82698
0.697884
6.55958
2.25092
5.67978
0.864664
5.1311
0.538588
4.30297
0.825076
4.47905
-0.171242
4.8584
-0.347964
5.45919
-0.552155
5.10844
0.420885
4.82464
0.371148
6.1491
-1.22335
7.1846
-0.926751
8.01952
-0.732587
7.87701
0.249851
6.62548
1.35489
5.80473
0.914045
4.4657
1.42786
3.05902
1.48951
1.93889
1.22066
1.46383
0.579169
1.2692
0.315806
0.744094
0.656454
0.66188
0.209667
2.50476
-1.71659
5.9795
-3.38174
7.81517
-1.76301
7.21099
0.654164
6.85469
0.393769
7.85152
-0.942832
9.82413
-1.90947
12.1724
-2.26829
12.9857
-0.696754
12.5053
0.621924
11.3683
1.28577
9.55325
1.97581
6.70665
2.98136
5.12856
1.69105
6.03899
-0.815399
7.44793
-1.32686
8.97162
-1.4604
9.37366
-0.35529
9.18737
0.239567
9.35027
-0.120828
9.73364
-0.338809
9.39097
0.388888
7.81824
1.6332
5.7498
2.1255
3.0105
2.79426
0.491324
2.57122
-1.23542
1.77886
-2.64443
1.44115
-3.95912
1.34285
-4.58722
0.630633
-4.05377
-0.529587
-4.4822
0.40681
-4.12047
-0.386926
-1.71793
-2.43201
-0.232232
-1.53171
1.71841
-1.98726
3.81754
-2.13845
5.73172
-1.95342
6.92961
-1.23675
8.22956
-1.3367
10.3409
-2.13064
11.3019
-0.975563
12.1436
-0.850462
13.3392
-1.19852
14.1974
-0.867739
14.6334
-0.454652
14.1844
0.416292
13.5698
0.580714
13.8863
-0.353151
14.0078
-0.164337
14.0163
-0.0652878
12.5462
1.40194
10.4218
2.06648
8.72967
1.62607
6.70345
1.97403
4.20096
2.45877
3.03938
1.13122
3.83036
-0.802088
4.17641
-0.325816
3.30277
0.932623
2.36666
1.00229
2.14395
0.288395
1.46361
0.749054
1.12916
0.419032
2.11622
-0.919049
3.28366
-1.0945
4.85016
-1.5178
6.76555
-1.881
8.07809
-1.28485
7.50705
0.60855
5.93125
1.62519
4.43264
1.54738
2.73543
1.76156
0.906079
1.90222
-0.417529
1.42076
-1.40137
1.07441
-1.63506
0.3167
-0.322706
-1.24729
0.153329
-0.410653
1.4921
-1.2826
4.19863
-2.66613
5.28428
-1.06713
5.55357
-0.258416
4.64015
0.896951
2.93959
1.67421
2.26235
0.638415
2.17797
0.0391392
1.01757
1.11331
1.11537
-0.150102
3.82464
-2.76839
4.6573
-0.900431
3.25737
1.3251
1.69164
1.47258
0.354661
1.24382
0.520766
-0.272971
1.72257
-1.31001
2.10064
-0.469614
2.40682
-0.404247
2.65466
-0.336364
2.87266
-0.313936
1.97392
0.800814
0.392493
1.47986
-0.428231
0.727278
-1.83576
1.30493
-2.26221
0.31235
-1.25199
-1.13405
-0.896462
-0.494242
-1.41935
0.376361
-1.764
0.175756
-1.93778
49.126
-102.346
99.4969
-105.517
151.626
-105.39
203.385
-103.298
255.081
-104.654
305.828
-101.098
358.391
-103.766
411.41
-106.092
461.846
-102.224
512.326
-102.796
566.859
-110.79
625.195
-117.484
683.164
-114.711
741.98
-116.091
801.372
-119.57
859.187
-117.511
915.629
-112.795
972.23
-111.76
1029.9
-115.446
1087.07
-115.576
1141.26
-111.284
1194.3
-110.491
1252.12
-115.997
1314.45
-122.507
1376.8
-127.417
1438.27
-129.493
1501.45
-129.314
1566
-126.068
1628.79
-122.689
1689.43
-120.153
1748.2
-116.717
1805.85
-118.038
1864.26
-121.797
1926.62
-124.509
1992.84
-127.714
2059.49
-132.765
2125.19
-133.336
2193.56
-137.133
2264.26
-141.723
2331.21
-135.254
2390.35
-119.911
2439.83
-94.2518
2484.88
-86.5587
2533.77
-106.399
2592.41
-123.462
2664.07
-141.704
2736.35
-153.582
2790.77
-121.185
2831.16
-73.1198
2878.27
-87.127
2935.25
-124.109
2991.07
-105.871
3045.26
-90.2736
3094.68
-108.249
3133.26
-98.4412
3170.3
-72.1397
3217.34
-84.1964
3272.18
-114.137
3323.96
-105.894
3362.94
-74.6398
3385.57
-59.438
3400.94
-50.5053
3422.62
-36.4752
3443.17
-18.2972
3442.38
-1.51245
3426.14
8.47671
3414.29
21.6739
3404.73
40.5616
3379.68
49.8802
3340.38
50.6479
3300.49
63.1531
3260.41
84.9066
3215.36
95.6736
3166.09
92.3782
3112.9
94.9116
3051.26
109.836
2981.52
128.656
2908.63
138.322
2837.84
133.816
2767.42
132.807
2690.78
147.979
2605.02
168.865
2512.83
178.848
2420.07
179.51
2325.61
182.821
2231.02
187.92
2137.47
186.723
2043.56
187.147
1949.06
189.563
1855.75
187.813
1764.76
184.381
1676.75
178.405
1592.81
170.617
1513.5
161.285
1438.56
151.752
1368.18
143.672
1303.54
131.23
1244.48
118.607
1189.32
111.324
1137.57
105.035
1090.21
95.4839
1046.82
86.1569
1006.05
81.1615
967.628
77.1894
931.526
72.6773
897.36
68.3894
864.539
65.3147
833.012
62.7462
802.009
62.0687
771.814
61.7642
743.018
58.8134
715.365
54.7154
689.312
51.2725
665.664
47.9961
642.78
45.6316
621.15
44.3845
601.271
42.3801
581.126
39.3463
561.267
36.9353
543.156
35.8109
526.426
34.7017
509.831
33.062
493.007
32.1758
478.193
30.2259
464.343
28.7607
449.474
27.6009
435.753
26.0668
423.961
24.5377
412.705
24.0146
401.643
24.085
389.832
23.1565
377.733
21.7866
366.448
22.0699
355.71
22.7412
345.463
22.721
334.223
22.976
322.828
22.2026
312.33
21.864
301.798
21.8502
290.942
22.1266
281.125
20.0062
272.155
18.2447
263.765
16.5621
255.648
15.0358
247.811
15.2662
241.337
13.5161
236.186
11.6022
230.503
11.8522
224.184
11.7355
219.014
9.52157
213.711
9.45607
207.416
11.0992
200.621
11.8489
195.629
10.3363
191.579
10.33
187.143
10.424
183.058
8.59357
178.162
8.96056
173.37
8.98558
168.768
8.38397
165.36
5.7988
161.988
6.38652
157.821
8.00327
152.896
8.77962
147.783
9.77302
143.754
9.89865
137.705
13.3675
132.544
11.4424
128.934
8.5079
125.79
5.69674
123.163
4.6485
119.746
7.24335
115.907
8.13739
111.537
9.13652
108.794
6.79665
107.895
3.55306
106.93
3.20581
103.86
5.26715
99.1085
6.63157
96.6619
3.70491
96.3044
2.10887
95.0786
3.22976
92.0412
4.71192
88.1694
6.44985
85.2914
5.2002
82.6226
4.02893
80.5697
3.73105
79.853
3.07777
78.9242
4.09272
78.0611
4.35613
75.7316
5.7751
72.1597
6.53629
69.2493
5.28585
65.6941
5.60229
62.896
4.03259
62.425
0.394922
61.3153
0.675954
59.7689
1.74024
60.1572
0.897873
60.2299
2.32048
58.6956
4.05244
57.1162
2.93121
55.7902
2.035
53.2408
3.15393
50.612
3.52576
49.7493
3.46277
49.4556
3.70766
47.9591
4.22796
45.0188
4.49727
42.1559
4.11833
41.1199
2.03188
41.1879
0.130367
41.9631
-0.79558
42.9695
-0.512539
43.7601
0.121176
45.0059
-1.48688
43.8865
1.42855
40.0836
5.13249
36.4416
6.48146
33.8609
6.26892
32.925
2.32451
32.4306
0.860932
31.8016
0.694337
31.4699
-0.0445634
30.1068
1.09207
30.1893
-0.804401
33.5772
-4.41063
36.2904
-3.42634
35.9911
0.591491
33.5718
3.86643
31.4707
3.14346
30.5657
0.293969
29.7707
1.27672
30.1508
1.9518
30.4092
1.8805
28.3913
3.7173
26.1155
3.87158
25.3856
0.807895
24.871
-0.582486
23.6485
0.736343
24.3258
-1.68436
25.0739
-0.810207
22.3726
4.5921
19.242
4.6355
17.8166
2.55886
19.954
-1.61144
24.1648
-4.54148
24.5798
-0.227313
21.964
3.09802
19.9722
2.47224
19.9762
1.48291
21.1987
0.186302
20.2164
2.16755
17.4163
3.40467
17.1457
-1.1298
18.4253
-1.87001
18.7796
0.51794
19.3845
-0.949297
18.4602
1.22565
16.5512
2.24045
17.2463
-1.72812
18.3523
-0.488695
16.9722
3.17615
13.8074
4.75707
11.7007
4.0301
11.0587
2.28424
9.15602
3.36514
8.13911
1.08445
10.0527
-3.25546
11.992
-2.59885
11.9936
-0.397461
10.8569
0.133596
11.203
-0.471675
12.273
-0.31447
11.1771
2.17208
10.9354
0.747529
11.2626
-0.412477
9.85232
1.18957
8.79286
0.788057
10.7734
-2.88472
13.1136
-2.97828
12.4969
1.27791
10.6693
4.06736
9.7002
3.62431
8.75522
1.82993
7.22003
0.921472
7.22384
-1.4731
10.1794
-4.32456
13.7003
-4.55631
13.6632
0.300268
13.2781
1.35626
13.9068
-0.0344883
12.0048
2.73572
9.3807
3.72385
8.87905
1.85981
8.3871
1.8696
6.68596
2.99505
5.46269
2.44808
4.3169
1.59999
3.29996
1.05139
3.14699
0.90461
2.57098
1.41126
2.46652
0.0695173
4.25001
-2.90355
7.06367
-5.71881
9.20082
-5.47683
9.86101
-1.47058
10.0043
0.448935
8.77858
2.43856
7.12219
3.18084
5.96698
2.03152
6.14255
-1.02855
4.90404
1.54165
4.12349
1.98649
5.5006
-1.25928
5.39893
-0.111182
3.98363
1.85095
4.10227
0.337948
7.40125
-4.17443
9.11745
-1.03369
7.97346
2.73934
5.55729
3.68027
3.09074
3.62446
3.79269
-0.782499
5.21311
-2.73065
4.63678
-0.360103
4.6757
-1.57441
5.35455
-2.82763
7.27569
-4.66518
11.6436
-8.17062
15.6165
-6.07125
16.5342
-0.573986
15.1422
2.07028
12.7372
3.8083
10.3587
4.69475
7.39912
5.46343
6.21368
3.47647
6.58336
1.3402
5.18231
3.12742
5.62762
0.214386
6.25508
-0.835392
4.81823
0.987599
3.89084
0.235428
4.54794
-1.37097
7.70109
-4.37414
11.6641
-5.06792
11.9426
-0.314529
10.3312
1.46948
10.4537
-1.24492
11.031
-1.90599
10.6202
-0.0137745
10.3713
1.1718
9.78603
2.3352
7.98179
3.31764
6.9458
1.64829
5.28052
2.22445
3.60204
1.44511
5.42547
-3.42087
8.52193
-4.24514
10.9348
-3.2272
12.3344
-1.87969
11.8304
1.01793
11.2964
1.23742
10.9208
0.861867
10.257
0.96054
10.219
0.806582
9.96256
1.23634
8.61879
2.17841
6.66597
2.50975
5.50442
1.28564
5.53448
0.229109
8.12694
-3.19291
10.2595
-2.35953
10.0305
0.39962
9.89854
-0.248547
9.92806
-0.331526
9.42185
0.437863
8.44109
0.941204
8.50083
-0.811393
8.10588
1.09589
7.43297
2.89564
8.28949
-0.0493385
8.84429
-0.0530923
8.14015
1.56303
6.25983
1.76358
4.22056
1.70603
4.67071
-0.994388
5.54135
-0.416181
5.3485
0.620425
5.3744
-1.16706
5.59305
-1.01672
7.85854
-2.85997
8.99449
-0.800884
7.44822
2.98438
6.74785
1.69761
5.09672
3.1438
3.13966
3.59115
2.91309
1.54474
4.07221
-0.4638
4.07231
0.444173
2.19827
2.6449
1.28319
1.24166
2.96442
-3.27862
5.35862
-5.66319
5.36757
-1.67373
3.83175
2.24599
3.69752
0.554134
5.26787
-2.50549
8.10491
-4.70487
11.9788
-6.05757
13.9122
-2.53854
13.3346
1.31803
10.8383
3.90232
7.59125
5.28977
5.33719
5.36521
5.55595
1.61257
6.74027
-1.89488
6.8538
-1.37718
7.61961
-2.18807
8.56684
-1.22974
9.16732
-0.3523
8.7549
0.318422
8.23163
0.224557
7.73948
0.925914
5.50112
3.8598
3.23926
4.4111
2.00195
4.0615
2.45854
2.14616
2.31168
1.92975
0.919494
2.9024
0.272835
1.98259
-0.0316249
0.96161
-0.401773
-0.227012
-2.24491
2.27333
-2.49569
-0.136504
-0.60198
-4.3457
-0.201059
-1.89883
2.49088
-4.70063
5.80972
-5.50537
7.42637
-3.62343
7.87164
-1.72436
7.83507
-1.27367
8.51562
-2.84188
9.00119
-1.44354
9.94587
-1.79779
10.8298
-2.11307
10.8058
-0.860803
11.6101
-1.3012
12.3545
-0.346449
11.7082
1.1883
10.7348
0.57549
9.51053
0.992312
9.45948
-0.0902773
9.67602
1.14584
9.34129
2.33458
8.51929
2.37768
8.20771
2.2198
7.18439
3.43208
5.03602
3.23507
4.76338
-0.584525
4.6112
-0.162632
2.92485
2.61766
3.39068
0.577054
4.62486
-0.83622
3.60932
1.83999
3.5078
0.566702
3.87191
-1.17032
3.65112
-0.85061
4.61669
-2.42658
5.63048
-2.83188
7.4196
-3.00652
7.66731
0.350223
5.58714
3.70346
5.31845
1.87528
4.95206
2.18034
2.62825
4.30689
0.39644
3.66794
-2.4321
3.96756
-3.79471
1.75695
-2.26142
-2.69421
-1.24858
-1.40457
2.61688
-5.1262
8.10636
-8.12217
9.43052
-2.33385
7.8804
1.29752
4.84264
3.92628
1.90828
4.49866
0.156796
2.30625
-1.12011
1.25782
-2.37979
2.30353
-1.89261
-0.687687
1.80966
-6.54231
4.58252
-3.72228
4.52596
1.28646
3.34698
2.56267
1.92354
2.54437
1.75782
-0.21022
1.36951
-1.02164
-0.526323
1.29476
-1.05239
0.128137
-0.470524
-0.968493
2.11051
-2.9268
4.316
-1.48793
4.06157
1.65275
2.8388
1.79966
0.344676
3.66095
0.0569512
0.471355
0.856993
-2.06004
-0.559634
0.801026
-2.81238
2.46963
-3.56302
0.756244
-5.66756
47.7119
-150.017
94.9748
-152.741
145.615
-155.995
198.229
-155.88
249.558
-155.957
301.353
-152.87
355.49
-157.887
408.296
-158.853
458.703
-152.517
509.766
-153.736
561.911
-162.764
614.781
-170.176
668.866
-168.603
725.468
-172.487
781.032
-174.928
834.896
-171.168
891.391
-169.087
950.139
-170.302
1007.51
-172.613
1061.3
-169.168
1114.81
-164.586
1171.66
-167.15
1230.6
-174.744
1289.05
-180.779
1346.71
-184.907
1404.36
-186.974
1463.73
-188.506
1524.73
-186.902
1585.72
-183.51
1646.45
-180.707
1705.49
-175.585
1763.42
-175.789
1822.92
-181.141
1886.99
-188.432
1954.04
-194.639
2019.84
-198.442
2084.54
-197.93
2147.16
-199.691
2204.11
-198.622
2256.78
-188.059
2312.24
-175.559
2374.27
-156.496
2435.39
-147.873
2490.86
-162.005
2550.05
-182.787
2614.85
-206.731
2670.76
-209.909
2717.15
-168.004
2768.74
-124.959
2820.36
-139.045
2866.2
-170.159
2923.1
-162.903
2987.83
-155.332
3033.72
-154.666
3060.76
-126.069
3095.84
-107.244
3154.64
-143.246
3226.37
-186.783
3283.34
-163.695
3306.93
-98.8761
3306.37
-59.3796
3311.83
-57.3199
3339.62
-65.9935
3371.29
-51.1043
3382.71
-14.4669
3381.49
8.53012
3381.77
21.3347
3369.11
52.1874
3329.76
88.5466
3280.23
98.2794
3241.36
98.7452
3207.75
116.931
3164.74
136.742
3110.74
143.843
3050.65
154.145
2983.68
174.201
2915.14
194.717
2845.53
204.1
2773.62
202.446
2696.93
207.561
2616
227.096
2532.16
250.526
2444.53
262.257
2353.93
266.474
2262.26
271.696
2171.14
275.558
2080.15
275.401
1988.73
277.044
1897.45
279.018
1808.39
275.483
1722.62
268.908
1639.66
260.284
1560.78
248.608
1485.89
235.391
1414.61
222.464
1348.45
209.405
1286.87
192.539
1229.23
176.031
1175.77
164.667
1126.13
154.591
1079.98
141.535
1036.51
129.552
995.641
121.99
957.887
114.923
922.629
107.969
888.717
102.183
855.971
97.935
824.247
94.2752
793.676
92.5791
764.816
90.5484
736.803
86.811
708.844
82.7261
682.762
77.4357
659.54
71.1719
636.966
68.1879
616.32
65.0155
597.889
60.8776
577.284
59.9404
556.066
58.1282
537.78
54.0354
521.469
50.9098
504.875
49.5869
487.645
49.3536
473.161
44.6996
459.519
42.3668
444.004
43.138
430.26
39.7776
418.913
35.8818
407.808
35.0282
396.982
34.9291
384.974
35.2432
372.439
34.393
361.318
33.2018
351.161
32.8801
341.809
32.032
331.344
33.386
320.217
33.3428
310.167
31.962
300.282
31.7353
290.35
32.0662
280.941
29.3798
272.004
27.247
263.609
24.9839
254.99
23.5968
246.792
23.4111
240.612
19.6632
236.092
16.0649
230.514
17.413
223.561
18.6718
217.99
15.1691
212.858
14.5532
206.221
17.633
198.99
19.1058
194.152
15.2629
190.114
14.4514
185.818
14.682
182.283
12.1143
176.76
14.5055
170.861
14.9057
166.017
13.2507
162.381
9.44147
158.292
10.3658
153.433
12.7971
148.576
13.6274
144.087
14.3038
141.037
13.0065
136.029
18.3777
131.587
15.9235
128.369
11.7524
125.336
8.83292
122.265
7.71701
118.541
10.9473
114.931
11.7551
110.819
13.2655
109.126
8.5494
109.302
3.41295
108.302
4.23042
105.347
8.21864
100.696
11.3797
97.2191
7.3063
95.1619
4.2274
92.6695
5.72655
89.5752
7.79967
86.3773
9.70834
83.321
8.27561
79.6785
7.57918
77.5483
5.8344
77.7037
2.93241
77.8509
4.02811
77.9245
4.24671
76.1778
7.46129
72.9466
9.76552
70.1612
8.00394
66.1553
9.55929
62.9415
7.3265
62.1169
1.25028
60.7214
2.12695
59.3941
3.23658
59.7307
0.586939
59.8955
2.17708
58.1078
5.7608
56.3123
4.72368
55.7455
2.77954
53.0791
5.92352
49.7756
6.92529
48.9886
4.4467
49.0912
3.67169
48.4535
4.88715
45.9238
7.05058
43.5073
6.46611
43.3954
2.16848
43.1866
0.35059
42.9718
-0.514643
42.7004
-0.142381
42.4924
0.368813
44.5364
-3.53123
44.6145
1.37802
41.1332
8.68555
37.15
10.5163
34.2593
9.19523
32.6917
3.86146
31.5594
2.00424
31.1019
1.13909
30.5864
0.490754
29.0985
2.60967
29.0315
-0.714916
32.186
-7.59187
35.4032
-6.63998
35.8493
0.178446
33.8108
5.92002
30.7197
6.24381
29.9438
1.19349
29.9828
1.27342
30.2554
1.66859
30.7747
1.39101
28.6678
5.87318
26.098
6.56444
25.4454
1.59805
24.5692
0.366766
22.589
2.69519
23.0385
-2.13672
23.4707
-1.23679
20.4767
7.57802
17.2451
7.94722
15.8347
3.96344
18.2563
-4.00234
22.6974
-8.98129
23.7097
-1.20861
21.4884
5.39497
19.5298
4.43589
20.3595
0.674181
22.1951
-1.64573
21.0051
3.37532
18.2728
6.15922
17.8564
-0.778151
17.9803
-2.06678
17.4249
0.9895
18.195
-1.71942
17.0492
2.29667
15.1003
4.10531
16.2275
-2.9898
17.6366
-1.99874
16.6476
4.04932
14.1466
7.15315
12.6968
5.36663
11.9187
3.05414
9.95793
5.29213
9.49856
1.50409
11.3528
-5.19071
11.7823
-3.0196
10.3916
0.986388
9.48823
1.10351
10.4587
-1.36416
12.1069
-1.90923
11.5102
2.75964
11.1719
1.17928
11.5594
-0.650245
10.1831
2.63499
8.69172
2.31466
9.80841
-3.89772
11.6516
-4.73939
11.392
1.57328
10.1136
5.40964
9.19491
4.5574
8.10364
2.99277
7.08543
2.12431
8.02678
-2.38293
10.7815
-7.06866
13.1408
-6.91541
13.195
0.245487
13.3072
1.18676
14.204
-0.842188
12.3464
4.74855
9.93962
6.16559
10.0475
1.78577
9.52096
2.40471
7.91675
4.65777
7.07055
3.31439
6.19013
2.52663
5.75758
1.5968
5.41248
1.28818
4.08867
2.83383
4.38134
-0.1665
5.85392
-4.29288
7.63844
-7.38977
10.1423
-7.80826
10.7812
-2.11036
10.7326
0.433807
9.60901
3.50928
7.26524
5.56645
5.78858
3.63987
6.12042
-1.28977
4.64706
3.14033
3.22541
3.5226
4.5651
-2.54926
5.22197
-0.869213
3.9127
3.16369
3.87849
0.37817
7.17977
-7.42725
8.85882
-2.62774
8.22906
3.51641
6.64142
5.34117
4.51647
5.75876
4.91359
-1.01045
5.79957
-3.57543
5.04758
0.35328
5.1722
-1.7339
6.00166
-3.59364
6.73759
-5.37083
9.03138
-10.5298
12.2483
-9.29044
12.8346
-1.15678
11.5564
3.30635
10.005
5.39406
8.11102
6.57198
5.60904
7.9426
5.06757
4.09657
6.40512
0.0601556
6.00097
3.61675
7.2858
-1.05723
8.80426
-2.22471
7.40786
2.41998
6.21493
1.53294
6.7976
-1.93983
8.97571
-6.50411
11.6397
-7.66242
11.8122
-0.400457
10.0205
3.42398
9.57312
-0.64428
10.32
-2.55731
10.1896
0.286884
9.56933
1.90041
8.52521
3.46283
6.75053
5.15411
5.62735
2.80672
3.45859
4.42529
1.84069
3.09852
4.11773
-5.69145
7.04895
-7.22141
9.03088
-5.19899
10.5662
-3.37641
10.7063
0.889765
10.4305
1.61362
10.0535
1.2586
9.74069
1.18129
9.58828
0.987746
8.99652
1.89392
7.93124
3.24801
6.68787
3.82159
6.05983
1.88022
6.24439
-0.0470423
8.4615
-5.47355
10.5398
-4.4281
10.7261
0.264331
10.7313
-0.202421
10.7941
-0.359785
9.99156
1.2935
9.34879
1.62054
10.1966
-1.73085
9.9255
1.27849
8.96176
3.86085
9.3111
-0.353728
10.1284
-0.859598
9.7952
1.80126
6.93054
4.63102
4.20442
4.5139
5.27843
-1.92315
6.0991
-1.17409
5.07467
1.77055
5.26944
-1.23026
6.06134
-1.8032
7.40548
-4.1193
7.31135
-0.603796
6.00319
4.36061
6.45553
1.31987
5.63238
4.08102
3.76174
5.43656
3.91632
1.42992
5.94186
-2.35794
6.70081
-0.284607
4.48942
4.88791
2.46899
3.35911
3.2878
-4.07714
5.95305
-8.20516
6.18428
-1.84468
3.68727
4.82423
3.09923
1.23125
4.04717
-3.37556
5.49497
-6.09213
9.26161
-9.81486
11.7614
-5.012
11.5272
1.60868
9.5123
6.01288
6.68832
8.31645
4.79524
7.40676
4.79868
1.61534
5.68366
-2.74354
6.02578
-1.66242
7.29059
-3.32017
8.30323
-2.1782
7.8428
0.168636
6.88565
1.34517
7.08724
0.00690379
7.19113
0.809972
5.60788
5.51206
3.833
6.21415
3.03436
4.91482
4.15427
1.06985
4.80755
1.35573
4.29953
3.35633
3.40391
2.90127
2.6111
1.73177
2.7379
-0.294855
0.311106
4.58488
-1.01571
1.05536
0.806648
-6.26992
0.461445
-1.7087
2.11001
-6.41631
5.48898
-8.88039
6.75401
-4.88138
6.68669
-1.67496
6.49524
-1.244
7.25238
-3.61334
7.31908
-1.58244
7.64878
-2.15416
8.45174
-2.93429
8.48829
-0.970971
9.15763
-1.94008
9.86525
-1.05112
9.42417
1.64407
8.85402
1.10167
8.28516
1.55029
9.14076
-0.946296
9.51762
0.728194
8.92767
2.83072
8.6337
2.75997
8.75548
2.13166
7.39786
4.73971
5.19572
5.38299
5.95413
-1.26104
5.95154
-0.13635
3.56543
5.08436
3.63943
0.572073
5.03389
-2.24045
4.62136
2.30003
4.32905
0.885652
4.11217
-0.995894
3.99772
-0.620639
5.4662
-3.78023
7.11448
-4.45087
8.42663
-4.35927
8.00575
0.845503
6.06436
5.57863
5.63234
2.309
5.57276
2.36938
3.8459
6.11233
1.84893
5.76905
-1.12555
7.00357
-2.22147
2.85905
0.0426614
-4.98458
0.227338
-1.48978
2.96244
-7.88231
8.60792
-13.9237
9.65458
-3.46062
7.59377
3.27373
4.81104
6.65988
2.42611
6.96502
0.613542
4.11299
-1.28788
3.08996
-2.84924
3.78237
-2.58689
-1.08732
0.735896
-9.80528
3.27982
-6.35936
3.07532
1.44323
1.4285
4.19214
-0.0618631
3.99871
0.588249
-0.968026
1.26782
-1.79467
-0.603189
3.12529
-1.566
0.996226
-1.05748
-1.58119
0.875162
-5.02076
3.21134
-3.92922
3.61643
1.09393
2.81906
2.52203
0.899371
5.47823
1.29111
-0.0378463
2.90819
-3.85308
1.84702
1.65132
-1.75502
5.88107
-3.98103
2.87308
-9.88864
47.9142
-197.59
95.289
-199.775
143.51
-203.879
192.894
-204.929
242.565
-205.297
293.071
-203.048
344.864
-209.354
395.292
-208.952
445.34
-202.252
499.258
-207.316
552.241
-215.428
600.613
-218.254
648.964
-216.658
700.484
-223.716
750.979
-225.127
800.691
-220.579
854.744
-222.845
911.696
-226.958
967.804
-228.424
1021.96
-223.028
1078.78
-221.115
1138.16
-226.245
1193.84
-230.124
1247.29
-233.925
1302.01
-239.321
1358.26
-242.918
1418.85
-248.794
1482.38
-250.136
1542.77
-243.609
1597.51
-235.167
1650.49
-228.289
1708.47
-233.502
1771.39
-243.801
1836.73
-253.528
1900.97
-258.63
1960.7
-257.94
2017.91
-254.934
2072.64
-254.205
2122.35
-248.168
2169.96
-235.42
2224.66
-230.025
2291.84
-223.447
2361.16
-217.007
2424.03
-224.695
2484.45
-243.116
2541.7
-263.922
2591.09
-259.142
2640.3
-217.016
2695.02
-179.587
2738.28
-182.365
2769.75
-201.452
2817.68
-210.902
2885.05
-222.796
2947.13
-217.035
2989.5
-168.787
3021.96
-139.903
3069.16
-190.948
3132.24
-250.239
3179.5
-211.887
3194.51
-114.78
3199.26
-64.647
3218.29
-77.2611
3248.35
-96.549
3275.16
-78.2247
3295.62
-36.1443
3311.61
-8.87954
3315.1
16.0786
3298.42
67.8837
3267.04
119.079
3229.84
134.114
3188.26
137.611
3142.52
159.426
3095.75
180.885
3044.01
193.373
2982.66
213.775
2914.12
239.504
2846.98
259.097
2779.37
268.328
2704.2
273.538
2622.98
285.266
2540.81
306.956
2458.06
330.694
2372.58
344.499
2283.32
350.941
2194.7
356.452
2108.46
360.006
2019.75
360.733
1931.21
363.531
1844.28
364.532
1759.79
358.313
1678.82
348.679
1600.52
337.517
1526.17
322.083
1455.29
305.635
1387.81
289.426
1325.4
271.431
1266.57
250.991
1210.83
231.578
1159.25
216.077
1111.45
202.286
1066.73
186.288
1024.1
172.143
983.758
162.238
946.69
151.835
911.908
142.672
878.319
135.877
846.133
130.089
814.858
125.565
784.8
122.561
756.862
118.429
729.256
114.379
701.352
110.706
675.653
103.112
652.706
94.1661
630.943
89.9995
610.716
85.2748
591.683
79.8311
571.269
80.3715
550.56
78.8148
532.42
72.1653
516.236
67.0822
499.97
65.8389
482.883
66.4168
467.768
59.6901
453.29
56.7942
438.506
57.88
425.982
52.3403
414.588
47.2905
402.953
46.7027
390.874
46.971
378.636
47.4511
367.258
45.6816
356.959
43.3785
346.782
43.0449
337.144
41.7297
327.481
43.0783
317.163
43.5532
307.292
41.5971
297.991
40.877
289.098
40.7195
279.916
38.4331
270.588
36.36
262.39
33.1367
254.721
31.3828
246.919
31.2187
240.272
26.2354
235.08
21.2237
228.729
23.6099
221.431
25.887
215.987
20.4485
212.111
18.4303
206.613
23.1934
199.919
25.9112
194.317
20.7145
188.834
19.8248
183.962
19.5419
180.137
15.9397
174.691
19.8911
168.346
21.2033
162.835
18.7221
158.58
13.7847
153.467
15.7862
148.054
18.6246
144.497
17.3638
141.563
17.3272
139.083
15.4241
134.888
22.557
131.228
19.6625
128.445
14.5872
124.75
12.7491
121.069
11.5752
117.095
15.0817
113.668
15.2065
111.101
15.8681
110.303
9.35219
110.357
3.33649
108.924
5.74828
106.46
10.7189
102.797
14.919
98.0913
11.9027
93.3107
9.00348
89.3514
9.64482
86.5103
10.6152
84.5223
11.574
82.1279
10.5907
78.3971
11.3909
75.9742
8.23299
75.8021
3.12088
76.3767
3.66
76.7187
3.79753
75.0922
9.022
72.8669
11.8946
70.6099
10.2117
66.9357
13.0647
63.8633
10.1974
62.0441
3.05052
60.0694
4.12498
59.154
4.37104
59.244
0.401133
58.755
2.35903
57.4818
7.0637
56.2143
6.35862
54.9441
4.08336
52.1985
8.66345
49.3136
9.7915
48.0751
5.54965
47.9623
3.80398
48.1201
4.83838
47.2792
7.97182
46.6273
7.1539
46.172
2.65318
44.8532
1.6652
44.0509
0.106307
43.3457
0.305324
41.5951
1.99399
41.8086
-3.72489
42.6744
0.525626
41.3778
9.96916
38.1192
13.8477
34.7998
12.5394
32.8957
5.89219
31.2207
3.71362
29.8006
2.7561
28.7338
1.59972
28.2959
3.12185
28.7116
-1.1436
30.4824
-9.38728
32.9207
-9.08574
34.2215
-1.20719
33.67
6.41791
31.1265
8.83475
30.8115
1.63165
31.6473
0.47145
30.8934
2.43375
30.291
1.95381
28.6591
7.50575
27.1625
8.12185
26.7766
2.14839
25.2119
1.9524
22.7494
5.21979
21.343
-0.721468