/*--------------------------------*- C++ -*----------------------------------*\
| =========                 |                                                 |
| \\      /  F ield         | OpenFOAM: The Open Source CFD Toolbox           |
|  \\    /   O peration     | Version:  v2012                                 |
|   \\  /    A nd           | Website:  www.openfoam.com                      |
|    \\/     M anipulation  |                                                 |
\*---------------------------------------------------------------------------*/
FoamFile
{
    version     2.0;
    format      ascii;
    class       volScalarField;
    location    "300";
    object      T;
}
// * * * * * * * * * * * * * * * * * * * * * * * * * * * * * * * * * * * * * //

dimensions      [0 0 0 1 0 0 0];


internalField   nonuniform List<scalar> 
65536
(
291.579
291.579
291.578
291.577
291.576
291.575
291.572
291.57
291.566
291.563
291.558
291.552
291.546
291.542
291.538
291.533
291.528
291.524
291.519
291.513
291.508
291.501
291.493
291.485
291.477
291.47
291.463
291.458
291.452
291.446
291.439
291.431
291.422
291.413
291.404
291.396
291.389
291.383
291.379
291.378
291.372
291.364
291.356
291.351
291.35
291.352
291.349
291.344
291.348
291.355
291.362
291.372
291.384
291.403
291.436
291.464
291.474
291.503
291.546
291.582
291.639
291.712
291.775
291.836
291.931
292.026
292.123
292.228
292.345
292.465
292.599
292.742
292.966
293.091
293.235
293.54
293.984
294.367
294.703
294.985
295.274
295.629
296.182
296.781
297.232
297.595
297.795
297.967
298.142
298.323
298.501
298.664
298.806
298.925
299.018
299.092
299.144
299.181
299.206
299.22
299.23
299.232
299.231
299.229
299.224
299.225
299.224
299.225
299.225
299.224
299.221
299.222
299.221
299.222
299.224
299.224
299.224
299.222
299.22
299.217
299.215
299.215
299.215
299.216
299.222
299.229
299.237
299.245
299.252
299.257
299.261
299.265
299.268
299.272
299.274
299.273
299.271
299.266
299.261
299.256
299.248
299.241
299.237
299.233
299.23
299.23
299.229
299.229
299.229
299.23
299.231
299.231
299.232
299.232
299.234
299.235
299.235
299.234
299.232
299.231
299.229
299.228
299.227
299.227
299.228
299.231
299.233
299.234
299.235
299.235
299.236
299.237
299.237
299.236
299.236
299.236
299.243
299.25
299.258
299.266
299.272
299.278
299.283
299.284
299.283
299.279
299.273
299.264
299.256
299.247
299.242
299.237
299.234
299.233
299.228
299.227
299.224
299.224
299.223
299.224
299.227
299.23
299.233
299.237
299.24
299.241
299.241
299.24
299.239
299.239
299.237
299.235
299.233
299.23
299.23
299.231
299.229
299.231
299.231
299.229
299.227
299.223
299.216
299.212
299.211
299.21
299.216
299.22
299.226
299.231
299.234
299.237
299.239
299.242
299.242
299.242
299.239
299.239
299.238
299.24
299.242
299.244
299.244
299.246
299.25
299.254
299.258
299.262
299.265
299.269
299.272
299.273
299.276
299.277
299.279
299.279
299.279
299.279
299.277
299.276
299.273
299.268
299.261
299.253
299.247
299.236
299.23
299.223
299.219
299.215
299.215
299.217
299.22
299.225
299.229
299.232
299.238
299.243
299.248
299.25
299.253
299.256
299.255
299.253
299.249
299.244
299.242
299.236
299.235
299.232
299.229
299.225
299.22
299.218
299.218
299.216
299.214
299.212
299.208
299.202
299.195
299.19
299.187
299.181
299.177
299.179
299.18
299.186
299.191
299.196
299.201
299.205
299.206
299.205
299.204
299.206
299.206
299.208
299.212
299.214
299.217
299.218
299.218
299.216
299.213
299.212
299.21
299.207
299.208
299.207
299.211
299.215
299.221
299.225
299.229
299.231
299.235
299.237
299.239
299.241
299.243
299.245
299.249
299.251
299.252
299.251
299.25
299.249
299.247
299.245
299.243
299.241
299.239
299.239
299.241
299.241
299.244
299.247
299.252
299.256
299.258
299.26
299.26
299.261
299.261
299.261
299.262
299.263
299.265
299.266
299.268
299.267
299.266
299.264
299.263
299.262
299.26
299.261
299.261
299.26
299.257
299.254
299.252
299.251
299.249
299.246
299.244
299.245
299.245
299.248
299.251
299.253
299.254
299.255
299.255
299.253
299.25
299.246
299.239
299.232
299.224
299.216
299.209
299.206
299.208
299.209
299.213
299.217
299.221
299.225
299.226
299.232
299.236
299.243
299.25
299.257
299.262
299.266
299.268
299.269
299.267
299.265
299.261
299.256
299.251
299.247
299.245
299.242
299.24
299.243
299.244
299.247
299.25
299.253
299.252
299.25
299.245
299.241
299.238
299.234
299.231
299.232
299.232
299.232
299.231
299.233
299.235
299.237
299.241
299.247
299.253
299.257
299.26
299.263
299.265
299.264
299.262
299.259
299.254
299.248
299.245
299.241
299.238
299.234
299.231
299.229
299.226
299.224
299.222
299.221
299.219
299.218
299.219
299.216
299.215
299.213
299.211
299.208
299.203
299.201
299.199
299.2
299.204
299.207
299.211
299.215
299.22
299.225
299.228
299.229
299.23
299.23
299.231
299.232
299.233
299.232
299.23
299.227
299.226
299.227
299.228
299.229
299.229
299.227
299.224
299.22
299.215
299.213
299.208
299.204
299.201
299.201
290.978
290.978
290.977
290.975
290.974
290.971
290.969
290.965
290.96
290.957
290.952
290.946
290.941
290.937
290.933
290.928
290.924
290.92
290.915
290.91
290.905
290.899
290.892
290.884
290.877
290.87
290.863
290.857
290.851
290.844
290.836
290.828
290.819
290.81
290.801
290.793
290.785
290.779
290.776
290.778
290.782
290.787
290.791
290.785
290.776
290.77
290.779
290.806
290.828
290.838
290.843
290.852
290.862
290.875
290.884
290.895
290.926
290.933
290.986
291.055
291.086
291.12
291.163
291.267
291.363
291.469
291.565
291.629
291.804
291.936
292.035
292.179
292.445
292.684
292.929
293.148
293.488
293.887
294.245
294.627
294.983
295.373
295.835
296.32
296.761
297.159
297.487
297.737
297.966
298.171
298.36
298.529
298.674
298.79
298.881
298.946
299.004
299.041
299.064
299.08
299.079
299.086
299.083
299.072
299.074
299.07
299.074
299.078
299.081
299.081
299.084
299.073
299.078
299.083
299.084
299.086
299.084
299.083
299.08
299.075
299.07
299.064
299.068
299.076
299.082
299.092
299.097
299.104
299.11
299.115
299.121
299.125
299.133
299.131
299.135
299.136
299.134
299.13
299.118
299.102
299.1
299.097
299.095
299.09
299.085
299.077
299.082
299.089
299.091
299.09
299.09
299.088
299.085
299.092
299.094
299.095
299.096
299.094
299.094
299.09
299.09
299.085
299.085
299.087
299.09
299.093
299.095
299.095
299.091
299.091
299.094
299.098
299.099
299.097
299.092
299.094
299.099
299.111
299.121
299.125
299.137
299.139
299.14
299.146
299.147
299.14
299.128
299.117
299.104
299.105
299.097
299.098
299.09
299.081
299.089
299.083
299.085
299.077
299.082
299.086
299.087
299.09
299.094
299.098
299.098
299.101
299.1
299.098
299.094
299.084
299.089
299.089
299.093
299.09
299.086
299.08
299.09
299.089
299.092
299.089
299.082
299.077
299.075
299.068
299.058
299.063
299.062
299.076
299.085
299.091
299.093
299.091
299.099
299.103
299.102
299.098
299.096
299.09
299.097
299.098
299.099
299.097
299.104
299.107
299.11
299.117
299.121
299.121
299.125
299.128
299.131
299.136
299.136
299.139
299.139
299.136
299.132
299.129
299.132
299.132
299.132
299.126
299.12
299.11
299.091
299.092
299.082
299.073
299.062
299.067
299.067
299.073
299.077
299.082
299.088
299.096
299.098
299.103
299.104
299.114
299.113
299.111
299.114
299.11
299.106
299.1
299.092
299.098
299.092
299.09
299.088
299.083
299.078
299.072
299.064
299.069
299.072
299.07
299.067
299.06
299.055
299.045
299.031
299.03
299.031
299.024
299.03
299.031
299.045
299.057
299.063
299.065
299.065
299.065
299.065
299.053
299.06
299.064
299.066
299.073
299.075
299.079
299.077
299.075
299.076
299.072
299.067
299.064
299.054
299.06
299.057
299.068
299.075
299.085
299.089
299.097
299.096
299.096
299.098
299.1
299.103
299.111
299.11
299.112
299.115
299.113
299.111
299.108
299.107
299.103
299.1
299.097
299.095
299.09
299.085
299.094
299.096
299.111
299.112
299.116
299.117
299.119
299.118
299.118
299.119
299.118
299.117
299.12
299.12
299.125
299.125
299.126
299.128
299.127
299.124
299.122
299.126
299.121
299.117
299.118
299.117
299.117
299.111
299.106
299.105
299.103
299.102
299.093
299.103
299.106
299.11
299.115
299.114
299.111
299.108
299.113
299.112
299.108
299.103
299.091
299.077
299.067
299.061
299.061
299.057
299.068
299.075
299.073
299.075
299.071
299.079
299.081
299.095
299.1
299.113
299.116
299.123
299.127
299.13
299.129
299.128
299.127
299.121
299.115
299.109
299.11
299.104
299.102
299.099
299.091
299.097
299.106
299.111
299.115
299.113
299.11
299.107
299.096
299.088
299.09
299.094
299.089
299.088
299.087
299.091
299.084
299.088
299.097
299.104
299.104
299.106
299.113
299.123
299.125
299.125
299.128
299.123
299.118
299.114
299.112
299.104
299.1
299.097
299.095
299.094
299.085
299.084
299.082
299.085
299.082
299.081
299.075
299.066
299.074
299.075
299.074
299.069
299.064
299.061
299.053
299.055
299.055
299.049
299.06
299.067
299.079
299.082
299.084
299.086
299.083
299.073
299.077
299.087
299.091
299.095
299.092
299.091
299.09
299.086
299.086
299.089
299.091
299.089
299.085
299.08
299.074
299.073
299.06
299.063
299.058
299.054
299.042
290.376
290.376
290.375
290.374
290.373
290.371
290.369
290.366
290.364
290.36
290.358
290.355
290.352
290.349
290.346
290.343
290.339
290.336
290.332
290.328
290.323
290.318
290.313
290.307
290.301
290.295
290.288
290.281
290.274
290.265
290.256
290.247
290.237
290.228
290.218
290.209
290.199
290.19
290.184
290.178
290.177
290.178
290.18
290.173
290.163
290.154
290.159
290.179
290.195
290.204
290.206
290.214
290.215
290.228
290.265
290.29
290.271
290.278
290.365
290.413
290.468
290.505
290.498
290.606
290.717
290.836
290.964
291.013
291.194
291.297
291.484
291.68
291.914
292.195
292.415
292.656
292.953
293.344
293.736
294.102
294.48
294.864
295.317
295.84
296.314
296.724
297.098
297.414
297.666
297.901
298.103
298.275
298.417
298.533
298.62
298.689
298.731
298.767
298.79
298.795
298.806
298.799
298.797
298.794
298.781
298.782
298.785
298.791
298.798
298.794
298.779
298.786
298.79
298.794
298.805
298.807
298.81
298.805
298.8
298.796
298.789
298.787
298.784
298.782
298.791
298.8
298.813
298.824
298.825
298.828
298.826
298.829
298.829
298.846
298.849
298.851
298.849
298.841
298.834
298.828
298.814
298.809
298.806
298.804
298.799
298.797
298.797
298.797
298.798
298.801
298.799
298.794
298.792
298.801
298.815
298.818
298.817
298.815
298.807
298.811
298.805
298.8
298.797
298.798
298.803
298.808
298.812
298.814
298.808
298.795
298.805
298.813
298.812
298.807
298.8
298.786
298.806
298.819
298.828
298.841
298.837
298.852
298.865
298.865
298.86
298.854
298.846
298.828
298.812
298.799
298.805
298.799
298.801
298.805
298.798
298.804
298.79
298.793
298.788
298.789
298.795
298.802
298.811
298.812
298.818
298.817
298.814
298.809
298.803
298.805
298.8
298.8
298.79
298.789
298.789
298.791
298.795
298.81
298.811
298.811
298.808
298.796
298.778
298.767
298.763
298.763
298.778
298.791
298.801
298.803
298.801
298.804
298.806
298.811
298.817
298.817
298.808
298.804
298.8
298.804
298.805
298.809
298.8
298.806
298.816
298.823
298.828
298.838
298.838
298.84
298.844
298.838
298.84
298.838
298.837
298.843
298.843
298.844
298.842
298.841
298.832
298.83
298.82
298.812
298.809
298.794
298.79
298.781
298.773
298.77
298.774
298.778
298.787
298.794
298.796
298.797
298.809
298.814
298.824
298.82
298.83
298.835
298.833
298.831
298.826
298.817
298.808
298.793
298.802
298.801
298.79
298.786
298.778
298.776
298.781
298.782
298.789
298.79
298.782
298.773
298.76
298.757
298.755
298.743
298.73
298.735
298.732
298.74
298.755
298.766
298.775
298.781
298.786
298.779
298.763
298.762
298.766
298.775
298.788
298.791
298.797
298.792
298.792
298.79
298.778
298.779
298.779
298.769
298.765
298.762
298.781
298.786
298.794
298.798
298.802
298.796
298.806
298.812
298.813
298.81
298.816
298.811
298.825
298.827
298.826
298.827
298.823
298.825
298.819
298.816
298.816
298.813
298.803
298.802
298.802
298.799
298.809
298.805
298.822
298.831
298.837
298.835
298.836
298.832
298.826
298.83
298.836
298.835
298.844
298.842
298.844
298.843
298.838
298.836
298.836
298.836
298.828
298.838
298.841
298.834
298.829
298.82
298.821
298.819
298.816
298.818
298.813
298.815
298.811
298.823
298.828
298.832
298.837
298.837
298.835
298.83
298.825
298.824
298.815
298.807
298.799
298.786
298.775
298.767
298.773
298.773
298.776
298.79
298.788
298.785
298.787
298.798
298.8
298.821
298.824
298.835
298.843
298.849
298.851
298.851
298.851
298.845
298.839
298.828
298.822
298.809
298.813
298.806
298.8
298.804
298.809
298.817
298.832
298.831
298.833
298.829
298.814
298.815
298.812
298.804
298.794
298.798
298.801
298.798
298.789
298.8
298.797
298.792
298.794
298.813
298.826
298.832
298.828
298.837
298.844
298.842
298.842
298.837
298.827
298.815
298.817
298.818
298.813
298.803
298.795
298.801
298.794
298.797
298.788
298.787
298.782
298.788
298.79
298.785
298.79
298.79
298.794
298.787
298.77
298.759
298.766
298.767
298.767
298.769
298.777
298.776
298.788
298.799
298.8
298.797
298.793
298.796
298.801
298.812
298.813
298.814
298.802
298.788
298.79
298.79
298.797
298.801
298.804
298.8
298.797
298.793
298.781
298.78
298.773
298.771
298.76
298.75
289.902
289.902
289.902
289.902
289.901
289.901
289.9
289.899
289.897
289.897
289.895
289.892
289.89
289.888
289.887
289.884
289.882
289.879
289.876
289.873
289.869
289.865
289.86
289.855
289.849
289.843
289.837
289.83
289.822
289.812
289.802
289.792
289.782
289.771
289.76
289.748
289.735
289.722
289.71
289.698
289.684
289.67
289.655
289.645
289.635
289.625
289.61
289.592
289.582
289.574
289.574
289.568
289.563
289.568
289.595
289.615
289.597
289.636
289.694
289.759
289.75
289.806
289.926
289.956
290.026
290.144
290.279
290.458
290.567
290.667
290.851
291.118
291.349
291.615
291.852
292.084
292.408
292.75
293.146
293.532
293.92
294.341
294.788
295.317
295.832
296.301
296.678
297.016
297.315
297.553
297.768
297.947
298.098
298.21
298.285
298.316
298.378
298.411
298.421
298.425
298.402
298.42
298.406
298.361
298.365
298.371
298.394
298.412
298.418
298.418
298.408
298.367
298.402
298.431
298.438
298.441
298.433
298.434
298.426
298.417
298.402
298.379
298.387
298.39
298.409
298.426
298.439
298.447
298.454
298.445
298.436
298.443
298.459
298.467
298.483
298.487
298.481
298.468
298.442
298.399
298.411
298.399
298.417
298.421
298.406
298.37
298.407
298.425
298.426
298.408
298.423
298.418
298.376
298.415
298.429
298.439
298.444
298.439
298.441
298.434
298.434
298.427
298.421
298.421
298.427
298.437
298.447
298.442
298.422
298.381
298.432
298.451
298.451
298.439
298.414
298.36
298.421
298.449
298.457
298.451
298.468
298.473
298.476
298.487
298.493
298.486
298.457
298.428
298.386
298.411
298.414
298.415
298.41
298.381
298.414
298.414
298.415
298.381
298.403
298.405
298.424
298.431
298.428
298.437
298.433
298.433
298.437
298.428
298.405
298.362
298.395
298.407
298.41
298.397
298.397
298.366
298.417
298.426
298.436
298.43
298.418
298.406
298.401
298.38
298.332
298.362
298.349
298.402
298.426
298.436
298.427
298.389
298.429
298.448
298.445
298.431
298.414
298.381
298.416
298.428
298.426
298.411
298.408
298.405
298.43
298.451
298.461
298.449
298.44
298.454
298.457
298.463
298.46
298.459
298.462
298.458
298.446
298.42
298.447
298.458
298.466
298.458
298.449
298.428
298.375
298.403
298.395
298.377
298.334
298.371
298.374
298.382
298.401
298.411
298.419
298.415
298.418
298.432
298.431
298.444
298.444
298.445
298.451
298.448
298.435
298.41
298.391
298.415
298.42
298.42
298.413
298.388
298.361
298.368
298.348
298.389
298.407
298.41
298.402
298.377
298.378
298.361
298.324
298.334
298.329
298.305
298.334
298.308
298.368
298.397
298.405
298.41
298.403
298.398
298.386
298.333
298.382
298.396
298.401
298.408
298.406
298.416
298.41
298.394
298.394
298.401
298.398
298.382
298.34
298.369
298.348
298.383
298.403
298.417
298.423
298.428
298.424
298.426
298.427
298.432
298.428
298.444
298.445
298.46
298.463
298.456
298.449
298.441
298.442
298.439
298.431
298.425
298.415
298.403
298.369
298.397
298.385
298.426
298.444
298.455
298.455
298.456
298.447
298.447
298.449
298.441
298.438
298.448
298.446
298.462
298.466
298.468
298.467
298.46
298.455
298.449
298.448
298.449
298.452
298.458
298.445
298.432
298.433
298.439
298.439
298.431
298.418
298.383
298.413
298.437
298.459
298.463
298.456
298.444
298.431
298.451
298.462
298.459
298.449
298.433
298.408
298.39
298.379
298.377
298.362
298.387
298.397
298.397
298.396
298.357
298.39
298.384
298.417
298.424
298.45
298.465
298.471
298.472
298.472
298.471
298.471
298.469
298.461
298.444
298.418
298.432
298.429
298.427
298.409
298.396
298.402
298.434
298.449
298.469
298.468
298.459
298.45
298.422
298.393
298.409
298.417
298.417
298.414
298.412
298.41
298.393
298.398
298.397
298.417
298.424
298.428
298.434
298.448
298.461
298.468
298.466
298.462
298.455
298.441
298.417
298.422
298.426
298.431
298.429
298.418
298.413
298.415
298.407
298.412
298.414
298.414
298.392
298.359
298.401
298.408
298.412
298.404
298.398
298.39
298.335
298.375
298.379
298.337
298.384
298.398
298.404
298.391
298.409
298.422
298.405
298.357
298.368
298.417
298.433
298.44
298.43
298.424
298.403
298.394
298.412
298.432
298.439
298.433
298.419
298.392
298.393
298.393
298.355
298.39
298.387
298.365
298.306
289.472
289.472
289.472
289.472
289.472
289.473
289.473
289.473
289.472
289.472
289.472
289.472
289.472
289.472
289.471
289.471
289.47
289.469
289.468
289.466
289.464
289.461
289.458
289.454
289.449
289.444
289.438
289.431
289.421
289.409
289.396
289.385
289.373
289.361
289.347
289.33
289.312
289.295
289.277
289.259
289.241
289.223
289.207
289.187
289.164
289.141
289.121
289.107
289.088
289.07
289.052
289.03
289.019
289.007
288.993
288.974
288.998
289.021
289.02
289.041
289.039
289.115
289.242
289.3
289.372
289.491
289.602
289.815
289.947
290.212
290.309
290.546
290.791
291.014
291.295
291.558
291.844
292.2
292.582
292.978
293.412
293.825
294.308
294.824
295.361
295.825
296.263
296.594
296.913
297.178
297.395
297.579
297.718
297.824
297.889
297.887
297.969
297.998
298.005
297.987
297.937
297.977
297.977
297.885
297.877
297.889
297.928
297.941
297.976
297.972
297.927
297.899
297.961
297.984
298.006
298.009
298.01
297.997
297.981
297.975
297.95
297.902
297.933
297.898
297.948
297.965
297.993
298.009
298.002
297.989
297.946
297.975
297.966
298.015
298.029
298.04
298.043
298.03
298.003
297.921
297.958
297.91
297.964
297.971
297.954
297.903
297.959
297.975
297.966
297.926
297.969
297.97
297.935
297.986
298.006
298.009
298.007
298.004
297.99
298.001
297.981
297.948
297.938
297.947
297.968
297.997
298.01
298.01
297.99
297.952
297.991
298.003
298.002
297.989
297.981
297.929
297.984
298
298.003
297.999
297.977
298.013
298.034
298.048
298.047
298.033
298.018
297.98
297.915
297.92
297.956
297.926
297.955
297.909
297.971
297.989
297.966
297.924
297.954
297.914
297.959
297.974
297.993
297.994
297.993
297.999
297.989
297.972
297.934
297.866
297.936
297.954
297.937
297.9
297.945
297.908
297.964
297.995
297.995
297.992
297.968
297.954
297.921
297.915
297.867
297.901
297.886
297.969
297.999
297.996
297.977
297.932
297.978
297.992
298.002
297.996
297.97
297.916
297.959
297.968
297.96
297.951
297.895
297.891
297.96
297.989
297.998
298.001
297.953
297.993
298.003
297.989
297.989
297.98
297.967
297.99
297.978
297.912
297.976
297.993
297.97
297.976
297.954
297.951
297.888
297.936
297.934
297.918
297.862
297.912
297.891
297.895
297.947
297.967
297.946
297.916
297.963
297.977
297.986
297.97
297.992
298.002
298.007
298.004
297.992
297.964
297.89
297.913
297.962
297.963
297.931
297.925
297.853
297.907
297.874
297.943
297.972
297.978
297.957
297.901
297.909
297.919
297.855
297.891
297.843
297.832
297.884
297.851
297.912
297.939
297.951
297.96
297.958
297.953
297.917
297.869
297.922
297.933
297.95
297.965
297.971
297.963
297.959
297.949
297.898
297.94
297.95
297.934
297.876
297.908
297.868
297.938
297.957
297.972
297.966
297.936
297.973
297.98
297.974
297.965
297.971
297.954
297.995
298.003
298.006
298.003
297.977
297.996
297.984
297.973
297.986
297.981
297.939
297.954
297.901
297.938
297.881
297.923
297.985
298.001
298.005
298.002
298.001
297.989
297.961
297.975
297.987
297.978
298.001
298.007
298.001
298.007
298.005
298
298.002
297.993
297.953
298.002
298.003
297.998
297.985
297.932
297.963
297.973
297.975
297.988
297.974
297.902
297.93
297.991
298.006
298.018
298.02
298.004
297.959
298.001
298.009
298.007
297.997
297.977
297.947
297.934
297.903
297.914
297.885
297.932
297.915
297.961
297.963
297.904
297.94
297.899
297.932
297.984
298
298.007
298.017
298.027
298.03
298.034
298.029
298.022
298.01
297.986
297.924
297.941
297.976
297.966
297.918
297.908
297.914
297.987
298.018
298.014
298.013
298.002
297.968
297.973
297.914
297.953
297.916
297.931
297.953
297.938
297.903
297.92
297.921
297.881
297.913
297.961
297.983
297.989
297.959
298.009
298.026
298.03
298.023
298.013
297.985
297.911
297.971
297.98
297.982
297.969
297.92
297.947
297.936
297.946
297.942
297.946
297.929
297.942
297.883
297.949
297.968
297.967
297.963
297.968
297.951
297.9
297.952
297.945
297.878
297.921
297.935
297.913
297.895
297.968
297.984
297.972
297.899
297.909
297.979
298.008
298.009
298.002
297.967
297.894
297.891
297.953
297.965
297.979
297.983
297.961
297.903
297.947
297.939
297.888
297.938
297.939
297.928
297.853
289.161
289.162
289.163
289.164
289.165
289.167
289.168
289.17
289.172
289.174
289.177
289.178
289.18
289.183
289.184
289.185
289.186
289.186
289.187
289.187
289.186
289.184
289.182
289.178
289.174
289.169
289.163
289.156
289.145
289.132
289.117
289.103
289.09
289.075
289.058
289.035
289.011
288.988
288.963
288.933
288.902
288.869
288.837
288.806
288.776
288.746
288.705
288.663
288.623
288.585
288.543
288.509
288.483
288.455
288.442
288.429
288.411
288.411
288.398
288.369
288.42
288.509
288.573
288.652
288.735
288.855
288.977
289.136
289.302
289.56
289.826
289.987
290.211
290.518
290.755
291.125
291.364
291.701
292.098
292.56
292.933
293.333
293.813
294.31
294.852
295.342
295.798
296.182
296.484
296.765
296.982
297.16
297.312
297.422
297.495
297.528
297.533
297.542
297.51
297.523
297.504
297.522
297.525
297.524
297.454
297.453
297.424
297.419
297.495
297.497
297.422
297.468
297.489
297.521
297.531
297.528
297.5
297.505
297.462
297.477
297.44
297.47
297.453
297.397
297.453
297.448
297.499
297.511
297.511
297.483
297.446
297.462
297.447
297.517
297.543
297.555
297.542
297.506
297.494
297.523
297.496
297.45
297.491
297.494
297.457
297.494
297.46
297.478
297.498
297.464
297.51
297.525
297.519
297.509
297.492
297.491
297.504
297.487
297.476
297.504
297.505
297.438
297.43
297.429
297.448
297.488
297.528
297.537
297.496
297.536
297.55
297.546
297.519
297.484
297.515
297.544
297.524
297.521
297.511
297.452
297.431
297.496
297.491
297.542
297.553
297.547
297.496
297.47
297.474
297.434
297.471
297.427
297.496
297.518
297.491
297.486
297.511
297.5
297.493
297.438
297.486
297.481
297.486
297.497
297.45
297.461
297.489
297.474
297.42
297.402
297.439
297.442
297.423
297.421
297.491
297.507
297.502
297.486
297.506
297.488
297.429
297.426
297.414
297.448
297.457
297.433
297.484
297.501
297.512
297.516
297.52
297.511
297.505
297.515
297.505
297.48
297.475
297.481
297.481
297.484
297.439
297.424
297.379
297.391
297.457
297.491
297.516
297.505
297.469
297.504
297.479
297.455
297.469
297.432
297.417
297.485
297.483
297.422
297.48
297.491
297.438
297.465
297.419
297.483
297.489
297.45
297.399
297.404
297.461
297.461
297.433
297.422
297.456
297.463
297.451
297.38
297.426
297.464
297.441
297.424
297.47
297.462
297.499
297.502
297.485
297.437
297.408
297.405
297.474
297.467
297.399
297.408
297.369
297.427
297.459
297.451
297.488
297.494
297.493
297.449
297.444
297.467
297.467
297.408
297.366
297.429
297.463
297.478
297.427
297.464
297.445
297.474
297.437
297.469
297.44
297.483
297.472
297.431
297.451
297.458
297.438
297.466
297.454
297.409
297.38
297.434
297.456
297.464
297.469
297.464
297.471
297.436
297.425
297.464
297.462
297.403
297.454
297.464
297.471
297.454
297.449
297.413
297.48
297.515
297.524
297.511
297.481
297.503
297.501
297.46
297.492
297.493
297.46
297.487
297.51
297.496
297.434
297.428
297.503
297.519
297.512
297.497
297.479
297.466
297.413
297.431
297.467
297.472
297.472
297.5
297.47
297.505
297.49
297.468
297.48
297.473
297.434
297.486
297.466
297.509
297.484
297.409
297.441
297.48
297.492
297.506
297.496
297.51
297.473
297.516
297.529
297.516
297.511
297.487
297.506
297.52
297.523
297.521
297.507
297.483
297.409
297.429
297.418
297.458
297.473
297.455
297.417
297.445
297.498
297.51
297.486
297.486
297.426
297.464
297.491
297.519
297.525
297.519
297.517
297.498
297.517
297.524
297.524
297.498
297.445
297.421
297.485
297.497
297.446
297.455
297.459
297.502
297.505
297.537
297.538
297.514
297.451
297.467
297.504
297.484
297.4
297.389
297.443
297.432
297.345
297.361
297.412
297.369
297.384
297.447
297.438
297.445
297.445
297.512
297.525
297.507
297.507
297.504
297.486
297.409
297.442
297.44
297.48
297.462
297.408
297.453
297.413
297.43
297.421
297.45
297.409
297.445
297.487
297.477
297.467
297.458
297.425
297.454
297.493
297.52
297.506
297.494
297.505
297.462
297.473
297.414
297.415
297.465
297.502
297.495
297.522
297.522
297.524
297.513
297.516
297.478
297.481
297.401
297.412
297.457
297.486
297.495
297.494
297.481
297.424
297.444
297.475
297.495
297.487
297.442
297.464
297.509
288.926
288.927
288.928
288.93
288.932
288.934
288.937
288.941
288.944
288.948
288.951
288.955
288.958
288.963
288.966
288.969
288.972
288.974
288.976
288.978
288.978
288.978
288.976
288.974
288.97
288.965
288.958
288.95
288.938
288.924
288.907
288.889
288.872
288.854
288.831
288.802
288.771
288.74
288.708
288.672
288.632
288.59
288.546
288.501
288.454
288.405
288.356
288.315
288.262
288.198
288.14
288.09
288.043
287.992
287.94
287.909
287.875
287.857
287.821
287.824
287.918
287.927
287.977
288.044
288.116
288.218
288.331
288.491
288.742
288.883
289.189
289.378
289.638
289.952
290.204
290.56
290.956
291.244
291.632
292.088
292.574
292.927
293.378
293.896
294.351
294.881
295.318
295.727
296.056
296.32
296.55
296.718
296.857
296.958
297.02
297.079
297.087
297.063
296.992
297.014
297.008
297.041
297.062
297.055
297.039
297.016
296.963
296.959
297.009
297.01
296.953
297.001
296.983
296.99
297.027
297.017
296.971
296.993
296.951
296.976
296.929
296.982
296.975
296.909
296.955
296.95
296.994
296.998
296.957
296.935
296.975
296.988
297.012
297
296.988
297.024
297.024
296.937
296.938
297.017
296.997
297.017
296.984
296.97
296.966
297.017
296.951
296.926
296.966
296.989
296.994
296.995
297.032
297.009
296.947
296.944
296.987
296.953
296.991
297.012
297.006
296.975
296.978
296.957
296.975
296.959
297.021
297.04
296.999
297.052
297.019
297
296.973
296.982
297.012
297.007
297.007
296.971
296.95
296.915
296.932
296.973
296.945
297
297.027
297.015
296.964
296.965
297.03
297.036
296.998
296.951
297.014
297.032
296.949
296.941
296.976
297.024
297.029
297.029
296.976
296.993
296.965
296.977
296.914
296.912
296.963
296.966
296.916
296.955
296.936
296.915
296.969
297.019
297.024
297.028
296.961
296.93
296.971
296.978
296.916
296.922
296.951
296.94
296.989
296.958
297.013
297.017
297.01
296.967
296.976
296.992
296.945
296.944
296.963
296.925
296.936
296.977
296.942
296.962
296.941
296.911
296.952
296.955
296.911
296.916
296.947
296.989
297.015
296.993
296.931
296.931
296.943
296.891
296.903
296.971
296.979
296.927
296.977
296.986
296.978
296.934
296.92
296.958
296.985
296.902
296.866
296.882
296.978
296.99
296.989
296.984
296.95
296.962
296.916
296.859
296.876
296.946
296.9
296.911
296.949
296.911
296.959
296.945
296.948
296.907
296.986
297.004
296.993
296.972
296.915
296.916
296.954
296.919
296.971
296.951
296.983
296.972
297.004
297.008
297
297.017
297.01
296.919
296.906
296.984
297.003
297.002
296.933
296.948
296.965
296.958
296.93
296.978
296.98
297.017
296.996
296.936
296.919
296.942
296.891
296.927
296.9
296.87
296.919
296.895
296.914
296.928
296.97
296.937
296.962
296.898
296.895
296.951
296.942
296.9
296.932
296.919
296.944
296.94
296.95
296.912
296.958
296.954
296.969
297.001
297
296.998
296.978
296.942
296.996
297.01
296.996
296.99
297.04
297.037
297.049
297.024
296.997
296.969
296.957
296.925
296.912
296.936
296.908
296.911
296.956
296.958
296.938
296.983
296.955
296.969
296.929
296.925
296.951
296.932
296.993
296.995
296.936
296.957
296.966
296.909
296.955
296.947
296.995
297.008
296.973
297.032
297.029
297.019
296.989
296.956
296.995
296.954
297.005
297.006
296.965
296.958
296.935
296.938
296.887
296.896
296.948
296.955
296.978
296.948
296.99
296.955
297.025
297.037
296.971
296.999
296.998
296.932
296.922
296.946
296.949
296.951
296.963
296.914
296.956
296.96
296.984
296.999
296.981
296.943
296.988
296.99
297.02
297.03
297.033
297.019
296.963
296.976
296.987
297.001
296.974
296.95
297.005
296.997
296.985
296.913
296.928
296.886
296.832
296.836
296.897
296.942
296.939
296.941
296.894
296.91
296.995
297.01
296.987
296.948
296.945
296.978
296.984
296.998
296.925
296.913
296.958
296.931
296.991
296.952
296.928
296.894
296.922
296.95
296.965
296.931
296.997
296.954
296.924
296.911
296.884
296.903
296.981
297.02
297.011
296.982
297.023
296.982
297.01
297.016
297.004
296.953
296.996
296.971
297.045
297.049
297.017
296.983
296.994
296.942
296.97
297.016
296.99
296.962
296.943
296.941
296.967
296.964
296.966
296.913
296.94
296.999
296.983
296.962
296.985
297.046
288.793
288.794
288.796
288.798
288.802
288.806
288.81
288.815
288.82
288.826
288.833
288.839
288.845
288.851
288.856
288.861
288.867
288.87
288.873
288.876
288.878
288.879
288.879
288.878
288.875
288.869
288.861
288.851
288.838
288.822
288.802
288.78
288.757
288.735
288.707
288.672
288.633
288.591
288.547
288.498
288.445
288.383
288.319
288.259
288.198
288.136
288.064
287.994
287.913
287.831
287.763
287.69
287.619
287.545
287.488
287.44
287.391
287.34
287.307
287.303
287.385
287.38
287.4
287.437
287.52
287.619
287.739
287.914
288.127
288.405
288.571
288.795
289.072
289.389
289.785
290.016
290.392
290.819
291.205
291.625
292.12
292.566
292.968
293.447
293.872
294.394
294.873
295.262
295.616
295.882
296.087
296.215
296.382
296.483
296.511
296.588
296.576
296.574
296.49
296.472
296.471
296.535
296.527
296.536
296.562
296.539
296.572
296.57
296.521
296.532
296.471
296.515