/*--------------------------------*- C++ -*----------------------------------*\
| =========                 |                                                 |
| \\      /  F ield         | OpenFOAM: The Open Source CFD Toolbox           |
|  \\    /   O peration     | Version:  v2012                                 |
|   \\  /    A nd           | Website:  www.openfoam.com                      |
|    \\/     M anipulation  |                                                 |
\*---------------------------------------------------------------------------*/
FoamFile
{
    version     2.0;
    format      ascii;
    class       volScalarField;
    location    "300";
    object      theta;
}
// * * * * * * * * * * * * * * * * * * * * * * * * * * * * * * * * * * * * * //

dimensions      [0 0 0 1 0 0 0];


internalField   nonuniform List<scalar> 
65536
(
-8.17586
-8.17596
-8.17654
-8.17735
-8.17858
-8.18024
-8.18234
-8.18507
-8.1888
-8.1921
-8.1969
-8.20281
-8.20829
-8.21252
-8.21694
-8.2219
-8.22635
-8.23109
-8.23604
-8.24131
-8.247
-8.25348
-8.26134
-8.26971
-8.27755
-8.28479
-8.29127
-8.29699
-8.30264
-8.30873
-8.31576
-8.32405
-8.33296
-8.34193
-8.35048
-8.35842
-8.36534
-8.37149
-8.37555
-8.37723
-8.38268
-8.39034
-8.39909
-8.40412
-8.4049
-8.40236
-8.40528
-8.41092
-8.40659
-8.39957
-8.39267
-8.38292
-8.3705
-8.35202
-8.3191
-8.29088
-8.2803
-8.25149
-8.20899
-8.1726
-8.11529
-8.04264
-7.97961
-7.91832
-7.82401
-7.72863
-7.63131
-7.52663
-7.40999
-7.29002
-7.1557
-7.01262
-6.78836
-6.66351
-6.51978
-6.21446
-5.77049
-5.38801
-5.05155
-4.77023
-4.48033
-4.12541
-3.57272
-2.97378
-2.52325
-2.15931
-1.9597
-1.78743
-1.61316
-1.43188
-1.25423
-1.09058
-0.94861
-0.829832
-0.7366
-0.662561
-0.61086
-0.573964
-0.548843
-0.534484
-0.52497
-0.523196
-0.524085
-0.525418
-0.530425
-0.530237
-0.530293
-0.529411
-0.529513
-0.530518
-0.533844
-0.532927
-0.533746
-0.532706
-0.531144
-0.530672
-0.531196
-0.532773
-0.534763
-0.537372
-0.539397
-0.539856
-0.5401
-0.538431
-0.532729
-0.526174
-0.517435
-0.50973
-0.502786
-0.497821
-0.49395
-0.489435
-0.486326
-0.482485
-0.481117
-0.481287
-0.483931
-0.488732
-0.493939
-0.498689
-0.506407
-0.513327
-0.518196
-0.521812
-0.52452
-0.524952
-0.526002
-0.526211
-0.525305
-0.524869
-0.524172
-0.523862
-0.523044
-0.522522
-0.520952
-0.519655
-0.519974
-0.520768
-0.522572
-0.523931
-0.52609
-0.526751
-0.527823
-0.527714
-0.526421
-0.524139
-0.522194
-0.521155
-0.520186
-0.519787
-0.518357
-0.517559
-0.517523
-0.518382
-0.519021
-0.518292
-0.512156
-0.504565
-0.496558
-0.488658
-0.482883
-0.476303
-0.471608
-0.470655
-0.47213
-0.475659
-0.481936
-0.490838
-0.498842
-0.507699
-0.512471
-0.517883
-0.520368
-0.521746
-0.526598
-0.527926
-0.530724
-0.530827
-0.531737
-0.530881
-0.527602
-0.524392
-0.521295
-0.517885
-0.514845
-0.514105
-0.513683
-0.514418
-0.516131
-0.516074
-0.518023
-0.519252
-0.522248
-0.524419
-0.524926
-0.524019
-0.525305
-0.523894
-0.524087
-0.525402
-0.527632
-0.532222
-0.538495
-0.542954
-0.544017
-0.544493
-0.538873
-0.534458
-0.528746
-0.523952
-0.520497
-0.517332
-0.515309
-0.513147
-0.512315
-0.513007
-0.515353
-0.516191
-0.51697
-0.51487
-0.513135
-0.511211
-0.511225
-0.508904
-0.504404
-0.50058
-0.496454
-0.492266
-0.489516
-0.486025
-0.483198
-0.481397
-0.478773
-0.477452
-0.476212
-0.475517
-0.47564
-0.476102
-0.477609
-0.478798
-0.481809
-0.486525
-0.493311
-0.501301
-0.507594
-0.518553
-0.525143
-0.531674
-0.535376
-0.539737
-0.539476
-0.53784
-0.534251
-0.530003
-0.526207
-0.522369
-0.516919
-0.511837
-0.507014
-0.504961
-0.501279
-0.498726
-0.49974
-0.501494
-0.505589
-0.51027
-0.513232
-0.518523
-0.51985
-0.522259
-0.525807
-0.530059
-0.534364
-0.536526
-0.536557
-0.538738
-0.540472
-0.542644
-0.547172
-0.552971
-0.559344
-0.564747
-0.568015
-0.57356
-0.5776
-0.575946
-0.574374
-0.56833
-0.563921
-0.558855
-0.553866
-0.550197
-0.549188
-0.549493
-0.551063
-0.54866
-0.549008
-0.546377
-0.543035
-0.540349
-0.537985
-0.537181
-0.536905
-0.538598
-0.541306
-0.542839
-0.545009
-0.547336
-0.546734
-0.547489
-0.543348
-0.539854
-0.534156
-0.530035
-0.525938
-0.523579
-0.520028
-0.517616
-0.51583
-0.51383
-0.511671
-0.509508
-0.505854
-0.503608
-0.503015
-0.503426
-0.504721
-0.505997
-0.508104
-0.509568
-0.511588
-0.513533
-0.515347
-0.515741
-0.514028
-0.513997
-0.510727
-0.508005
-0.502349
-0.499125
-0.496476
-0.495038
-0.49438
-0.494233
-0.493983
-0.49361
-0.492869
-0.491862
-0.489522
-0.488315
-0.487169
-0.487636
-0.489155
-0.490543
-0.491645
-0.49282
-0.494456
-0.493789
-0.493483
-0.495188
-0.497726
-0.500887
-0.502532
-0.503859
-0.506154
-0.508642
-0.510745
-0.50934
-0.510132
-0.507063
-0.503911
-0.501882
-0.500437
-0.499578
-0.49956
-0.502174
-0.504417
-0.508982
-0.51544
-0.522837
-0.530855
-0.53921
-0.545371
-0.548478
-0.546392
-0.54533
-0.542118
-0.537305
-0.534163
-0.53013
-0.528251
-0.522999
-0.518821
-0.511533
-0.505077
-0.497549
-0.492326
-0.48865
-0.486655
-0.485748
-0.487354
-0.490014
-0.493415
-0.498287
-0.503393
-0.508086
-0.510102
-0.512897
-0.514581
-0.511896
-0.510966
-0.507769
-0.504505
-0.502249
-0.502353
-0.505106
-0.509475
-0.513347
-0.516915
-0.520822
-0.5235
-0.522561
-0.523107
-0.523068
-0.524066
-0.521301
-0.519719
-0.518097
-0.5142
-0.507846
-0.501758
-0.497511
-0.494953
-0.491391
-0.489787
-0.490907
-0.492908
-0.496176
-0.500934
-0.506293
-0.509693
-0.513691
-0.517082
-0.520327
-0.524211
-0.526114
-0.528397
-0.530754
-0.533062
-0.534204
-0.536045
-0.536986
-0.536243
-0.538668
-0.539681
-0.541317
-0.543847
-0.546855
-0.551447
-0.553683
-0.555667
-0.554967
-0.550782
-0.548009
-0.543486
-0.539332
-0.534264
-0.529363
-0.527151
-0.52621
-0.524368
-0.524327
-0.523973
-0.522564
-0.522101
-0.522714
-0.525031
-0.527822
-0.528657
-0.527485
-0.526547
-0.525536
-0.525794
-0.52739
-0.530905
-0.534458
-0.539383
-0.541583
-0.546852
-0.55047
-0.553908
-0.55424
-8.28604
-8.28674
-8.28757
-8.28898
-8.29074
-8.29317
-8.29557
-8.29923
-8.30383
-8.3076
-8.31242
-8.31804
-8.32335
-8.32725
-8.33134
-8.33601
-8.34008
-8.34447
-8.34906
-8.35403
-8.35942
-8.36545
-8.37262
-8.38021
-8.38748
-8.39442
-8.40085
-8.40688
-8.41318
-8.42006
-8.42781
-8.43645
-8.44542
-8.45442
-8.46318
-8.47153
-8.47894
-8.48532
-8.48819
-8.4858
-8.48263
-8.47729
-8.4736
-8.47934
-8.48844
-8.49468
-8.48475
-8.45777
-8.43637
-8.42577
-8.42159
-8.41257
-8.40234
-8.38964
-8.38058
-8.36974
-8.33863
-8.33147
-8.27814
-8.20932
-8.17804
-8.14403
-8.10158
-7.99747
-7.90102
-7.79548
-7.69946
-7.6349
-7.46028
-7.32863
-7.22929
-7.08553
-6.81961
-6.5804
-6.33553
-6.11619
-5.77606
-5.37687
-5.0195
-4.63747
-4.28153
-3.89094
-3.42937
-2.94432
-2.50367
-2.10556
-1.77745
-1.52765
-1.2984
-1.09283
-0.903776
-0.734907
-0.590624
-0.474554
-0.382919
-0.318637
-0.259814
-0.223588
-0.2006
-0.184507
-0.185224
-0.178102
-0.180788
-0.19216
-0.189843
-0.194285
-0.189787
-0.185931
-0.183573
-0.183656
-0.180597
-0.191565
-0.185921
-0.180995
-0.179958
-0.178487
-0.179781
-0.18095
-0.184218
-0.189238
-0.194453
-0.199919
-0.196237
-0.188587
-0.182711
-0.172566
-0.167223
-0.160438
-0.154442
-0.148969
-0.14288
-0.138901
-0.131712
-0.133238
-0.128946
-0.128553
-0.130453
-0.134743
-0.14616
-0.161964
-0.163877
-0.167161
-0.169335
-0.174348
-0.179638
-0.187435
-0.181989
-0.175199
-0.173127
-0.173936
-0.1744
-0.176271
-0.179422
-0.172669
-0.170297
-0.169329
-0.168251
-0.170239
-0.16984
-0.174506
-0.174678
-0.17878
-0.179479
-0.177252
-0.174322
-0.171295
-0.169208
-0.169641
-0.173233
-0.173387
-0.169932
-0.166063
-0.165007
-0.167739
-0.171955
-0.170743
-0.164817
-0.153415
-0.143372
-0.138974
-0.127146
-0.125705
-0.124111
-0.118097
-0.117295
-0.124611
-0.136625
-0.147686
-0.160533
-0.159738
-0.166766
-0.166457
-0.173812
-0.1834
-0.174964
-0.180846
-0.179043
-0.187349
-0.182511
-0.178615
-0.177324
-0.173874
-0.170338
-0.166307
-0.166601
-0.16337
-0.163947
-0.166255
-0.169878
-0.180383
-0.175606
-0.175226
-0.171581
-0.173886
-0.178346
-0.184441
-0.174649
-0.174881
-0.172522
-0.175337
-0.182381
-0.186885
-0.189382
-0.195969
-0.20655
-0.201075
-0.20252
-0.188555
-0.17894
-0.172827
-0.171175
-0.173409
-0.165393
-0.161259
-0.161911
-0.165898
-0.168425
-0.174158
-0.167365
-0.166638
-0.164973
-0.16717
-0.160469
-0.157691
-0.154352
-0.147405
-0.142948
-0.143435
-0.139209
-0.136138
-0.13367
-0.12807
-0.127988
-0.12562
-0.125572
-0.128679
-0.131954
-0.135579
-0.132531
-0.132709
-0.132169
-0.138318
-0.144453
-0.154547
-0.173416
-0.172085
-0.182562
-0.191371
-0.201881
-0.196936
-0.197256
-0.191727
-0.186816
-0.182013
-0.175899
-0.168635
-0.166082
-0.161049
-0.160059
-0.149999
-0.151188
-0.152802
-0.15062
-0.154294
-0.158476
-0.164024
-0.17265
-0.166355
-0.172118
-0.174674
-0.17668
-0.181737
-0.185943
-0.192039
-0.200734
-0.194965
-0.192626
-0.194675
-0.197582
-0.204269
-0.209654
-0.219043
-0.233165
-0.233839
-0.232755
-0.240524
-0.233956
-0.233671
-0.2194
-0.207217
-0.200773
-0.198846
-0.198981
-0.199749
-0.199362
-0.21148
-0.203912
-0.200731
-0.197924
-0.191381
-0.189084
-0.185389
-0.187661
-0.188833
-0.187821
-0.192342
-0.197331
-0.200006
-0.209775
-0.20379
-0.207609
-0.196668
-0.189191
-0.179185
-0.175193
-0.167581
-0.16842
-0.168243
-0.166416
-0.163965
-0.161152
-0.153589
-0.154664
-0.151984
-0.149571
-0.151321
-0.152807
-0.156409
-0.157405
-0.161315
-0.164458
-0.167662
-0.169511
-0.173901
-0.179363
-0.170034
-0.167943
-0.153545
-0.152739
-0.147938
-0.146852
-0.14558
-0.146244
-0.146169
-0.145542
-0.146261
-0.147172
-0.14437
-0.144018
-0.139496
-0.139096
-0.137877
-0.135816
-0.13733
-0.139857
-0.141922
-0.138436
-0.14363
-0.147189
-0.146079
-0.147255
-0.147742
-0.152962
-0.157885
-0.159445
-0.161682
-0.162447
-0.171252
-0.161546
-0.158373
-0.153824
-0.149363
-0.150345
-0.153473
-0.156197
-0.151275
-0.152442
-0.15639
-0.161426
-0.173005
-0.187029
-0.196766
-0.203733
-0.203485
-0.207663
-0.196705
-0.189567
-0.191181
-0.188937
-0.192865
-0.185341
-0.183357
-0.168792
-0.163984
-0.151739
-0.148106
-0.141728
-0.137561
-0.134266
-0.13494
-0.135792
-0.137288
-0.143658
-0.149179
-0.155163
-0.154002
-0.160571
-0.162048
-0.164782
-0.173106
-0.167046
-0.158458
-0.15361
-0.149507
-0.151215
-0.154279
-0.157488
-0.168501
-0.175941
-0.174047
-0.169965
-0.175629
-0.175984
-0.177065
-0.173142
-0.17989
-0.176087
-0.167494
-0.160089
-0.160101
-0.157939
-0.151331
-0.140925
-0.139449
-0.139532
-0.13655
-0.14088
-0.146358
-0.150175
-0.152651
-0.160335
-0.164411
-0.166929
-0.1694
-0.170401
-0.178762
-0.180005
-0.182074
-0.179578
-0.18229
-0.182968
-0.189005
-0.198
-0.190019
-0.189543
-0.190029
-0.19499
-0.200412
-0.202912
-0.211186
-0.209321
-0.209351
-0.214939
-0.204479
-0.196913
-0.185425
-0.182076
-0.180265
-0.177961
-0.181741
-0.190769
-0.187413
-0.177601
-0.173033
-0.169683
-0.172634
-0.173326
-0.173978
-0.178107
-0.177787
-0.17538
-0.173573
-0.17482
-0.179115
-0.184504
-0.189833
-0.191579
-0.203939
-0.201243
-0.20577
-0.210263
-0.22263
-8.39732
-8.39789
-8.39848
-8.39962
-8.40107
-8.4029
-8.4049
-8.40757
-8.41021
-8.4135
-8.41601
-8.41877
-8.42188
-8.42482
-8.42789
-8.43114
-8.43447
-8.43783
-8.44156
-8.44577
-8.45049
-8.45565
-8.461
-8.46674
-8.47283
-8.47905
-8.48537
-8.4923
-8.50009
-8.50869
-8.51794
-8.52724
-8.53649
-8.54571
-8.55527
-8.56516
-8.57488
-8.58329
-8.58951
-8.59556
-8.59678
-8.59527
-8.59424
-8.60068
-8.61063
-8.61931
-8.61473
-8.5949
-8.57838
-8.57018
-8.56791
-8.55947
-8.55871
-8.5461
-8.50848
-8.48382
-8.50284
-8.49562
-8.40872
-8.36054
-8.30575
-8.26847
-8.27573
-8.16743
-8.05686
-7.93808
-7.81001
-7.76089
-7.57952
-7.4763
-7.28967
-7.09414
-6.85928
-6.57916
-6.35873
-6.11771
-5.82108
-5.42977
-5.03796
-4.67175
-4.29413
-3.91008
-3.4565
-2.93424
-2.45977
-2.05019
-1.67559
-1.35928
-1.10758
-0.872418
-0.670977
-0.49902
-0.35677
-0.240782
-0.153438
-0.084599
-0.0424194
-0.00644944
0.0161861
0.0215489
0.0319102
0.0249676
0.0230077
0.0201765
0.00772967
0.00863366
0.0117352
0.0169562
0.0239512
0.0199702
0.00502646
0.0118546
0.0157575
0.0207423
0.0310306
0.0331974
0.0359479
0.0314776
0.0264062
0.0223529
0.0152806
0.0128621
0.0102248
0.00858864
0.017224
0.0260063
0.0395675
0.0497963
0.0515862
0.0541238
0.0519765
0.0555112
0.0557044
0.0727467
0.0753959
0.0776534
0.075579
0.0669105
0.0602912
0.0545997
0.0397959
0.0353436
0.0322075
0.0306177
0.0248033
0.0234029
0.0231844
0.0231147
0.0238444
0.0273051
0.0254925
0.0203935
0.01831
0.0269667
0.0407622
0.0446427
0.043325
0.0412295
0.033332
0.0369816
0.0316393
0.0264997
0.0236776
0.0240963
0.0297397
0.0347084
0.0378732
0.0400316
0.0338785
0.0213576
0.0315926
0.0389681
0.0377994
0.0331049
0.0258997
0.0125041
0.0320984
0.0447696
0.0543655
0.067696
0.0630048
0.0781585
0.0915188
0.0913155
0.0863696
0.0806026
0.0725802
0.0546999
0.0385682
0.0250529
0.0316931
0.0252628
0.0269946
0.0316643
0.0238253
0.0305059
0.0166736
0.0187576
0.0138449
0.0153907
0.0214957
0.0280589
0.0377337
0.0381351
0.0442034
0.0437149
0.0398507
0.0355503
0.0293369
0.0311176
0.0266253
0.025911
0.0165217
0.0150847
0.0149982
0.0174029
0.0209547
0.0361248
0.0368447
0.0376761
0.0341566
0.0218357
0.00391425
-0.00713381
-0.0106079
-0.0112274
0.00384888
0.0169178
0.0276587
0.0291017
0.0269121
0.0304748
0.0324769
0.037443
0.0431553
0.042985
0.0341245
0.0299912
0.0257694
0.0302498
0.0309861
0.0351616
0.0260366
0.0322981
0.041792
0.0488323
0.0540067
0.0641285
0.0641786
0.0663778
0.0698109
0.0637525
0.0658522
0.0642125
0.063562
0.0688402
0.0693257
0.0705664
0.0681159
0.0673818
0.0577592
0.0564224
0.0463901
0.0383139
0.0352928
0.0200917
0.0158664
0.00707219
-0.000422518
-0.00357449
0.000678436
0.00403792
0.0132942
0.0200707
0.0220111
0.0227851
0.0348942
0.0397526
0.0505672
0.0458513
0.0558446
0.061551
0.0595514
0.056955
0.0517606
0.0435699
0.0337557
0.019491
0.0282646
0.0267961
0.0165342
0.0125363
0.00444003
0.0021358
0.00678632
0.00852482
0.0154852
0.0161723
0.0078834
-0.00117239
-0.0135335
-0.0163957
-0.019004
-0.0308107
-0.044146
-0.0385926
-0.0419204
-0.0332925
-0.0191305
-0.00769092
0.00127688
0.0074735
0.0120399
0.00544589
-0.0110171
-0.0113196
-0.00791569
0.0014849
0.0139001
0.0168346
0.0228308
0.0184431
0.0181315
0.0163421
0.00443186
0.00494204
0.00545343
-0.00457322
-0.00844483
-0.0120022
0.0068031
0.0127362
0.0205865
0.0238545
0.0284141
0.0226964
0.0321492
0.0386741
0.039418
0.036655
0.0421487
0.0372264
0.0511297
0.0527894
0.0521555
0.0535498
0.0497237
0.0510875
0.0453548
0.0418144
0.0427277
0.0387621
0.029577
0.0282462
0.0286712
0.0254865
0.0350955
0.0309676
0.0486362
0.0571112
0.0628077
0.0610861
0.0625211
0.0586253
0.0520903
0.055937
0.0620791
0.06137
0.0698038
0.06848
0.0698853
0.0694865
0.0639256
0.0622341
0.0619222
0.0619721
0.05386
0.0640112
0.0671964
0.060546
0.0551276
0.0461738
0.0470167
0.0454517
0.0426841
0.0438358
0.0387987
0.0417171
0.0373028
0.0491608
0.0546755
0.0577734
0.063166
0.0634064
0.0613441
0.0558202
0.0517301
0.050168
0.0408383
0.0327885
0.0248365
0.0124606
0.00124884
-0.00636436
-0.000373393
-0.0011693
0.00223329
0.016721
0.0137947
0.0112156
0.0137283
0.0242859
0.0263526
0.0474693
0.0497906
0.061483
0.0693379
0.0755206
0.0771012
0.0772418
0.0773401
0.0708551
0.0649218
0.0547295
0.047911
0.035544
0.039512
0.032582
0.0265138
0.0303587
0.0354639
0.0431958
0.0581914
0.0567801
0.0592707
0.0548675
0.0405852
0.0416276
0.0377726
0.0301985
0.0198323
0.024231
0.0277274
0.0241937
0.0156574
0.0265262
0.0235621
0.0183683
0.0198489
0.0391365
0.0526394
0.0583606
0.0541332
0.0629296
0.0707275
0.0683628
0.068011
0.0634073
0.0531552
0.0416959
0.0433126
0.0444797
0.0389017
0.0291978
0.0209792
0.0271913
0.0203858
0.0229946
0.0141049
0.0129698
0.0078223
0.0138049
0.0165404
0.0112515
0.016652
0.0160557
0.0199207
0.0135916
-0.00354726
-0.0148169
-0.00758872
-0.00693955
-0.00649751
-0.00502
0.00368821
0.00193673
0.0141414
0.025091
0.0258507
0.0235646
0.0191814
0.0223893
0.0269552
0.0382221
0.0391933
0.0405602
0.0282824
0.014742
0.0160093
0.0166436
0.0233143
0.0267995
0.029874
0.0262881
0.0229763
0.0191442
0.00701761
0.00624769
-0.000791261
-0.00234722
-0.014248
-0.0233675
-8.38152
-8.38141
-8.38143
-8.38158
-8.38194
-8.38244
-8.38317
-8.38415
-8.38576
-8.38671
-8.38826
-8.3911
-8.39346
-8.39483
-8.39673
-8.39937
-8.40165
-8.40405
-8.4068
-8.41012
-8.41393
-8.41818
-8.42322
-8.42871
-8.43427
-8.44011
-8.44618
-8.45307
-8.46147
-8.47106
-8.48133
-8.49148
-8.50153
-8.51184
-8.52316
-8.5357
-8.54868
-8.5611
-8.57302
-8.58514
-8.59884
-8.61343
-8.62819
-8.6387
-8.64844
-8.65806
-8.67295
-8.69076
-8.70113
-8.7091
-8.7088
-8.71478
-8.71977
-8.71559
-8.68793
-8.66873
-8.68619
-8.64739
-8.58924
-8.52463
-8.53336
-8.47713
-8.35709
-8.32736
-8.25681
-8.13914
-8.00395
-7.82567
-7.71578
-7.61578
-7.43265
-7.16521
-6.93461
-6.66834
-6.43104
-6.19964
-5.87519
-5.53342
-5.13734
-4.75112
-4.36295
-3.94243
-3.49481
-2.9664
-2.45142
-1.98264
-1.6054
-1.26732
-0.968734
-0.730642
-0.514956
-0.335846
-0.185648
-0.0729999
0.00143017
0.0326323
0.094754
0.128013
0.137816
0.142158
0.118471
0.136658
0.122331
0.0779892
0.0813095
0.0878973
0.110663
0.129026
0.134847
0.135158
0.125066
0.0839619
0.119245
0.147267
0.154524
0.15822
0.150225
0.150591
0.142776
0.133355
0.118568
0.0952976
0.10342
0.107243
0.125338
0.143025
0.155705
0.163872
0.170522
0.161298
0.152889
0.159624
0.17558
0.183402
0.19992
0.204163
0.198104
0.184871
0.158611
0.115275
0.128168
0.115363
0.133379
0.137559
0.123025
0.0870505
0.1235
0.141483
0.142552
0.125154
0.139328
0.135126
0.0927689
0.131641
0.145427
0.156135
0.160467
0.155854
0.157886
0.15042
0.150416
0.143437
0.138062
0.137769
0.143879
0.15334
0.163252
0.159003
0.138373
0.097852
0.148285
0.167363
0.167383
0.155643
0.130268
0.0766066
0.137276
0.166107
0.173509
0.167578
0.184416
0.189501
0.192625
0.203977
0.209904
0.20265
0.174199
0.145119
0.102264
0.127406
0.130629
0.131373
0.12685
0.098113
0.130598
0.13033
0.131674
0.0978596
0.119917
0.122056
0.140301
0.147914
0.144373
0.15358
0.150079
0.149748
0.153426
0.144276
0.121389
0.0790817
0.111873
0.123563
0.126588
0.11349
0.113865
0.0832111
0.13368
0.142551
0.153098
0.147073
0.134401
0.122937
0.118051
0.0965988
0.0489457
0.0783993
0.0652881
0.118385
0.142897
0.152613
0.143651
0.106112
0.145872
0.164295
0.161576
0.147838
0.130541
0.0979457
0.133226
0.144995
0.142514
0.127902
0.124807
0.122236
0.147118
0.167265
0.177668
0.16574
0.156897
0.170687
0.17348
0.180166
0.17675
0.175252
0.17848
0.174258
0.162373
0.136727
0.163412
0.174664
0.18289
0.174339
0.165276
0.144688
0.0920392
0.119879
0.111755
0.0933621
0.0505301
0.0879294
0.0908828
0.098869
0.11756
0.12787
0.135917
0.132087
0.134554
0.14895
0.147777
0.160826
0.160887
0.161593
0.168186
0.16487
0.151287
0.126901
0.107401
0.131901
0.136912
0.136287
0.129794
0.104305
0.0782243
0.0849421
0.0645828
0.105972
0.124204
0.127233
0.118754
0.0938307
0.0950153
0.0777586
0.040977
0.0504464
0.0455309
0.0218097
0.0508157
0.0243117
0.084752
0.113275
0.121602
0.12656
0.119538
0.114365
0.103091
0.0498606
0.0983438
0.113106
0.117331
0.124275
0.122692
0.132662
0.127082
0.110703
0.111119
0.117929
0.114579
0.0990112
0.0563623
0.0860058
0.0650097
0.0994652
0.119486
0.134051
0.13928
0.144541
0.140779
0.142608
0.144011
0.148837
0.144953
0.160602
0.161738
0.17626
0.180171
0.173058
0.165793
0.157321
0.15868
0.155604
0.147277
0.141637
0.131452
0.11964
0.086246
0.114029
0.102218
0.1424
0.160577
0.171861
0.171983
0.172455
0.164035
0.1635
0.165737
0.157941
0.155201
0.165124
0.163205
0.178377
0.182559
0.184972
0.183268
0.17684
0.171861
0.165358
0.164592
0.16556
0.16918
0.174548
0.161988
0.149177
0.149767
0.155811
0.1558
0.147628
0.134975
0.0999087
0.130097
0.153537
0.17554
0.179275
0.173012
0.160342
0.147282
0.167514
0.179134
0.176239
0.16573
0.149984
0.124967
0.106407
0.0960887
0.0940892
0.0791733
0.1042
0.114035
0.114221
0.11241
0.0733538
0.106635
0.100754
0.133794
0.141213
0.166863
0.181281
0.187526
0.18833
0.188684
0.187429
0.188091
0.186084
0.177847
0.160642
0.134894
0.148298
0.145434
0.143671
0.125421
0.112515
0.11886
0.151237
0.165415
0.185896
0.18512
0.175983
0.167244
0.138325
0.109829
0.125851
0.133314
0.134036
0.131224
0.129059
0.126432
0.109898
0.11426
0.113989
0.13404
0.140265
0.144829
0.15043
0.164436
0.177787
0.184773
0.182353
0.178288
0.171652
0.158206
0.133492
0.139066
0.142338
0.147346
0.145271
0.135194
0.129673
0.131645
0.12415
0.129247
0.130915
0.13055
0.108401
0.0756442
0.117345
0.125139
0.129022
0.120906
0.115049
0.106434
0.0519037
0.0918813
0.0954363
0.0541009
0.100417
0.114258
0.12029
0.107579
0.125783
0.138281
0.121816
0.0738369
0.0845326
0.133762
0.149438
0.156345
0.146555
0.140465
0.119495
0.110478
0.129228
0.148264
0.155445
0.149593
0.135795
0.108484
0.110189
0.109917
0.0715155
0.106728
0.103549
0.0818639
0.0225881
-8.32114
-8.32105
-8.32076
-8.32058
-8.32031
-8.3202
-8.31986
-8.32014
-8.32068
-8.32039
-8.32052
-8.32086
-8.32116
-8.32112
-8.32127
-8.32192
-8.32275
-8.32366
-8.32482
-8.32669
-8.32921
-8.33202
-8.33516
-8.33882
-8.34332
-8.34854
-8.35428
-8.36179
-8.37199
-8.38413
-8.39662
-8.40823
-8.41952
-8.43147
-8.44579
-8.46286
-8.48078
-8.49783
-8.51593
-8.53415
-8.55211
-8.56931
-8.58601
-8.60548
-8.62877
-8.65181
-8.67183
-8.68618
-8.70437
-8.72323
-8.74038
-8.76325
-8.7737
-8.78603
-8.79943
-8.81833
-8.79488
-8.7718
-8.77312
-8.75221
-8.75359
-8.67807
-8.55083
-8.49286
-8.42078
-8.30185
-8.19038
-7.97803
-7.84622
-7.58039
-7.48367
-7.24706
-7.00213
-6.77908
-6.498
-6.23497
-5.94868
-5.59304
-5.21079
-4.81429
-4.38059
-3.96782
-3.48471
-2.96905
-2.43134
-1.96756
-1.52934
-1.19917
-0.879666
-0.614861
-0.398135
-0.2139
-0.074907
0.0315868
0.0965887
0.0941538
0.176712
0.205562
0.212421
0.194049
0.143791
0.183852
0.183797
0.0920649
0.0837725
0.0960018
0.135652
0.148613
0.183
0.178882
0.133985
0.105874
0.167841
0.191739
0.213492
0.216633
0.217609
0.203829
0.188281
0.182495
0.157459
0.109671
0.140409
0.105353
0.154842
0.172203
0.200306
0.215829
0.209177
0.196672
0.152935
0.182698
0.173594
0.221814
0.235972
0.24775
0.25
0.236878
0.21036
0.128148
0.165618
0.117602
0.171055
0.177924
0.160763
0.11015
0.166108
0.182606
0.173059
0.133157
0.176179
0.177315
0.142399
0.193705
0.212973
0.216561
0.214125
0.211613
0.197659
0.207947
0.188631
0.155526
0.145084
0.153822
0.175046
0.203876
0.217526
0.216849
0.197283
0.159039
0.197756
0.210306
0.209114
0.195968
0.188018
0.136488
0.190771
0.207591
0.210147
0.205925
0.184129
0.219862
0.241575
0.255027
0.254468
0.240076
0.224983
0.187397
0.122617
0.127335
0.162976
0.132818
0.161959
0.116455
0.178631
0.196597
0.172754
0.130881
0.161422
0.121551
0.166625
0.180836
0.200107
0.201291
0.200272
0.205798
0.196718
0.179198
0.141129
0.0735431
0.1433
0.161429
0.144123
0.107514
0.152177
0.11491
0.17133
0.202286
0.202277
0.199557
0.17553
0.160868
0.12832
0.122604
0.073974
0.108479
0.0935347
0.176468
0.205865
0.203104
0.184447
0.138812
0.184822
0.198975
0.209057
0.202983
0.177045
0.123497
0.166375
0.175389
0.166899
0.158125
0.102389
0.0985325
0.167337
0.19617
0.204864
0.20849
0.160419
0.19994
0.210049
0.19641
0.196545
0.187399
0.174558
0.197328
0.185421
0.119396
0.183482
0.200117
0.176773
0.183597
0.161271
0.15833
0.0955784
0.143106
0.140986
0.125422
0.0696383
0.118928
0.098716
0.10218
0.154687
0.174126
0.153146
0.123236
0.169997
0.184578
0.193192
0.177095
0.199744
0.209567
0.213808
0.210792
0.199467
0.171353
0.0969658
0.119872
0.169097
0.17061
0.137827
0.131892
0.0606365
0.114379
0.0807715
0.149999
0.178896
0.184848
0.164677
0.108114
0.116049
0.126008
0.0625022
0.0987294
0.0504953
0.0394665
0.0910964
0.0580022
0.118947
0.14626
0.15858
0.166938
0.16508
0.160373
0.12462
0.0759305
0.129111
0.140122
0.157568
0.172372
0.178307
0.170447
0.166161
0.156672
0.105231
0.147157
0.157081
0.140968
0.0829249
0.11498
0.0751304
0.145184
0.163795
0.179348
0.173142
0.143402
0.180612
0.187375
0.18093
0.172705
0.178469
0.16089
0.20189
0.210504
0.213728
0.210427
0.184382
0.203047
0.19128
0.179831
0.193199
0.188443
0.146237
0.160962
0.108011
0.1454
0.0879266
0.130538
0.191883
0.208732
0.212644
0.208769
0.20863
0.196745
0.168605
0.182487
0.194222
0.185368
0.208214
0.21407
0.208162
0.213823
0.211797
0.207645
0.20878
0.200523
0.160393
0.208902
0.210716
0.205573
0.192347
0.138891
0.170307
0.18065
0.182096
0.195376
0.181565
0.109317
0.137362
0.197886
0.213647
0.225499
0.226865
0.21093
0.166729
0.20816
0.216612
0.214107
0.204537
0.184609
0.154474
0.140762
0.110012
0.121686
0.0923469
0.139407
0.121853
0.168589
0.170472
0.11129
0.146921
0.106505
0.139168
0.190859
0.207136
0.214379
0.22402
0.233759
0.23764
0.241436
0.235827
0.229556
0.217561
0.193132
0.131238
0.148148
0.183605
0.17339
0.125253
0.115018
0.121743
0.194556
0.225178
0.221176
0.220687
0.20912
0.174879
0.180146
0.121005
0.159955
0.12362
0.138659
0.160307
0.145702
0.110546
0.127443
0.128007
0.0877743
0.12045
0.168504
0.19052
0.196289
0.166124
0.216728
0.232865
0.237585
0.230228
0.219933
0.192598
0.117809
0.178362
0.186815
0.189117
0.176085
0.126763
0.154279
0.143576
0.153383
0.149244
0.153173
0.136099
0.149658
0.0901362
0.156477
0.175305
0.174434
0.170417
0.175543
0.158493
0.106971
0.159492
0.152419
0.0855695
0.128222
0.142339
0.120725
0.101829
0.175176
0.191277
0.179474
0.105822
0.116404
0.18592
0.21507
0.21664
0.209478
0.174748
0.101742
0.0986763
0.160393
0.1724
0.18626
0.190093
0.167908
0.110603
0.154332
0.146593
0.0955454
0.145209
0.145974
0.134889
0.0599117
-8.14089
-8.14044
-8.13955
-8.13843
-8.1371
-8.13558
-8.1338
-8.13209
-8.13038
-8.12807
-8.12559
-8.12383
-8.12221
-8.11957
-8.11781
-8.11717
-8.11626
-8.11581
-8.11542
-8.11549
-8.11638
-8.11799
-8.12049
-8.12387
-8.12822
-8.13349
-8.13921
-8.14666
-8.15715
-8.17033
-8.18479
-8.19893
-8.21265
-8.22681
-8.24472
-8.26733
-8.29106
-8.31443
-8.3393
-8.36929
-8.40056
-8.43307
-8.46518
-8.49585
-8.52613
-8.55644
-8.59693
-8.63899
-8.67882
-8.71683
-8.7597
-8.79314
-8.81935
-8.84688
-8.86045
-8.87358
-8.891
-8.89142
-8.90444
-8.93364
-8.88238
-8.79355
-8.72938
-8.64976
-8.56768
-8.44707
-8.32479
-8.16589
-8.00029
-7.74216
-7.4761
-7.31483
-7.0916
-6.78413
-6.54752
-6.17681
-5.93816
-5.60094
-5.20454
-4.74203
-4.36915
-3.96975
-3.48966
-2.99268
-2.45023
-1.96042
-1.50385
-1.12034
-0.818182
-0.537451
-0.319964
-0.141968
0.00930238
0.120009
0.193042
0.225925
0.230357
0.24016
0.207968
0.220648
0.20188
0.220072
0.222399
0.222142
0.151526
0.150747
0.12177
0.116722
0.19228
0.194917
0.120044
0.165969
0.187235
0.218709
0.22825
0.226211
0.198036
0.203083
0.159367
0.174844
0.137823
0.167528
0.150999
0.0944599
0.150654
0.145793
0.196357
0.209123
0.208603
0.180365
0.143723
0.159299
0.144423
0.21502
0.240656
0.252684
0.239913
0.203417
0.191293
0.220317
0.193664
0.147373
0.188806
0.191427
0.155168
0.192012
0.158241
0.17547
0.195412
0.161716
0.207844
0.222656
0.216706
0.207061
0.189795
0.188332
0.202034
0.185203
0.173898
0.201665
0.202309
0.136239
0.127983
0.126513
0.145967
0.185281
0.226039
0.23466
0.193572
0.233911
0.247788
0.243916
0.217172
0.181983
0.212726
0.241446
0.221674
0.218802
0.209178
0.149504
0.128934
0.194192
0.189103
0.239497
0.251051
0.244977
0.193724
0.167905
0.172153
0.131782
0.168745
0.124632
0.193333
0.215446
0.188792
0.183365
0.208824
0.197916
0.190309
0.136047
0.183462
0.178839
0.183396
0.194765
0.1478
0.159131
0.186956
0.171659
0.11731
0.0993452
0.137135
0.139468
0.120293
0.119219
0.188759
0.204893
0.199945
0.183758
0.203587
0.185965
0.126593
0.123526
0.112112
0.145802
0.154317
0.130328
0.181994
0.198311
0.209318
0.213757
0.2173
0.208756
0.202996
0.21273
0.202719
0.177546
0.173063
0.17841
0.179045
0.181343
0.137162
0.121692
0.0767075
0.088695
0.154764
0.188704
0.213859
0.203174
0.166655
0.201644
0.17714
0.152613
0.167223
0.130129
0.115156
0.182877
0.181021
0.119883
0.177835
0.188698
0.135787
0.162466
0.116664
0.180323
0.186422
0.147624
0.0965432
0.10142
0.158847
0.158687
0.130793
0.120243
0.153629
0.160582
0.149192
0.077928
0.123771
0.161398
0.138255
0.121335
0.167326
0.159316
0.196294
0.199326
0.183126
0.134626
0.10531
0.102523
0.171835
0.164887
0.0969928
0.105644
0.0671602
0.124395
0.157235
0.149127
0.185677
0.191869
0.190491
0.147025
0.1413
0.164298
0.165232
0.105926
0.0640623
0.12677
0.161221
0.175318
0.124553
0.161894
0.142437
0.171706
0.134483
0.167006
0.137689
0.180661
0.169699
0.128877
0.148332
0.155781
0.135708
0.163725
0.152169
0.106742
0.0778535
0.131389
0.153757
0.161667
0.167213
0.161981
0.168979
0.133448
0.122655
0.161445
0.159638
0.101195
0.151564
0.161793
0.168303
0.151558
0.147032
0.110823
0.177989
0.213038
0.221456
0.208788
0.17889
0.20072
0.198674
0.158006
0.190225
0.190763
0.157977
0.184288
0.207486
0.194026
0.132096
0.126018
0.200811
0.216406
0.209893
0.194417
0.176897
0.164242
0.111176
0.128862
0.164326
0.169844
0.169292
0.197435
0.167255
0.202566
0.187489
0.165448
0.177554
0.170538
0.131717
0.184192
0.163926
0.206462
0.181954
0.106753
0.138402
0.178174
0.189765
0.203961
0.193792
0.207631
0.171166
0.21406
0.226699
0.21398
0.209171
0.185142
0.203766
0.218029
0.220833
0.218296
0.204348
0.180645
0.10632
0.126825
0.115825
0.155728
0.170365
0.152369
0.114646
0.143154
0.195493
0.208107
0.183633
0.183653
0.123387
0.161679
0.188493
0.216935
0.222411
0.216726
0.214587
0.195573
0.215033
0.221725
0.221583
0.195404
0.142987
0.119086
0.183188
0.19516
0.144171
0.152293
0.157081
0.199359
0.202602
0.234903
0.23565
0.211286
0.148425
0.165225
0.202152
0.181385
0.097812
0.087055
0.140555
0.129747
0.0423887
0.058538
0.109347
0.0665925
0.0813206
0.144575
0.136239
0.14249
0.142732
0.209872
0.222383
0.20444
0.205126
0.20205
0.183344
0.106967
0.140124
0.137257
0.177304
0.159846
0.105418
0.150661
0.110842
0.127476
0.119113
0.148065
0.107118
0.143014
0.184295
0.174355
0.164528
0.156201
0.123054
0.15183
0.19063
0.217831
0.204205
0.191363
0.202483
0.159578
0.170351
0.112106
0.113227
0.163062
0.20013
0.193064
0.21975
0.219319
0.221497
0.211232
0.213425
0.175556
0.178487
0.0990508
0.110058
0.154498
0.183854
0.193014
0.192129
0.179057
0.121935
0.142217
0.173149
0.192284
0.184409
0.140215
0.161749
0.206819
-7.8857
-7.88514
-7.88388
-7.8821
-7.87986
-7.87741
-7.8743
-7.87123
-7.86818
-7.86406
-7.86027
-7.85701
-7.8534
-7.84918
-7.8455
-7.84252
-7.83985
-7.83793
-7.83594
-7.83424
-7.83376
-7.8342
-7.83526
-7.83754
-7.84136
-7.84674
-7.85347
-7.86218
-7.8735
-7.88788
-7.90483
-7.92255
-7.94021
-7.95825
-7.98092
-8.00975
-8.04067
-8.07133
-8.10398
-8.1396
-8.17959