/*--------------------------------*- C++ -*----------------------------------*\
| =========                 |                                                 |
| \\      /  F ield         | OpenFOAM: The Open Source CFD Toolbox           |
|  \\    /   O peration     | Version:  v2012                                 |
|   \\  /    A nd           | Website:  www.openfoam.com                      |
|    \\/     M anipulation  |                                                 |
\*---------------------------------------------------------------------------*/
FoamFile
{
    version     2.0;
    format      ascii;
    class       volVectorField;
    location    "300";
    object      U;
}
// * * * * * * * * * * * * * * * * * * * * * * * * * * * * * * * * * * * * * //

dimensions      [0 1 -1 0 0 0 0];


internalField   nonuniform List<vector> 
65536
(
(0.284591 -0.291612 0)
(0.856279 -0.305984 0)
(1.45816 -0.288297 0)
(1.98947 -0.276586 0)
(2.5548 -0.284358 0)
(3.11591 -0.269436 0)
(3.62593 -0.270391 0)
(4.20503 -0.280838 0)
(4.7539 -0.277918 0)
(5.30479 -0.283641 0)
(5.86416 -0.301454 0)
(6.49837 -0.313302 0)
(7.11851 -0.298116 0)
(7.7021 -0.301972 0)
(8.33312 -0.323482 0)
(8.9786 -0.323796 0)
(9.59926 -0.304611 0)
(10.1742 -0.296925 0)
(10.7694 -0.309725 0)
(11.3999 -0.304166 0)
(12.0084 -0.301803 0)
(12.6111 -0.323986 0)
(13.227 -0.317523 0)
(13.8453 -0.305316 0)
(14.5035 -0.342105 0)
(15.2255 -0.377303 0)
(15.9466 -0.35635 0)
(16.6282 -0.307122 0)
(17.2518 -0.305807 0)
(17.899 -0.327554 0)
(18.5146 -0.325155 0)
(19.1287 -0.339457 0)
(19.7964 -0.353768 0)
(20.4742 -0.325787 0)
(21.1152 -0.304793 0)
(21.7792 -0.348538 0)
(22.5177 -0.376388 0)
(23.2144 -0.371851 0)
(23.9757 -0.361641 0)
(24.7194 -0.3383 0)
(25.4241 -0.311536 0)
(26.008 -0.232591 0)
(26.3732 -0.231319 0)
(26.8883 -0.346863 0)
(27.5941 -0.362276 0)
(28.2661 -0.342883 0)
(29.0804 -0.422742 0)
(29.9855 -0.376523 0)
(30.4892 -0.171179 0)
(30.6749 -0.219864 0)
(31.3358 -0.398703 0)
(32.0948 -0.251257 0)
(32.3947 -0.127697 0)
(32.8574 -0.309828 0)
(33.6394 -0.348819 0)
(34.1244 -0.172098 0)
(34.3809 -0.201274 0)
(34.9118 -0.373519 0)
(35.6243 -0.308279 0)
(36.0418 -0.147418 0)
(36.362 -0.189783 0)
(36.8015 -0.224795 0)
(37.0939 -0.041086 0)
(37.0878 0.106519 0)
(37.0185 -0.0238475 0)
(37.1144 -0.164866 0)
(37.1666 0.011808 0)
(36.8694 0.266158 0)
(36.4633 0.211222 0)
(36.295 0.0277386 0)
(36.1668 0.0648372 0)
(35.7687 0.241596 0)
(35.1605 0.305898 0)
(34.6311 0.25681 0)
(34.194 0.221192 0)
(33.6927 0.246974 0)
(33.073 0.314482 0)
(32.3302 0.362087 0)
(31.5818 0.358674 0)
(30.9089 0.351483 0)
(30.2183 0.411609 0)
(29.3533 0.482016 0)
(28.3278 0.509101 0)
(27.3204 0.496899 0)
(26.3486 0.503299 0)
(25.3254 0.529456 0)
(24.2785 0.524207 0)
(23.2657 0.526772 0)
(22.2161 0.535976 0)
(21.1695 0.532183 0)
(20.1302 0.526799 0)
(19.1069 0.508692 0)
(18.1332 0.487631 0)
(17.1926 0.459539 0)
(16.3242 0.428009 0)
(15.4989 0.40996 0)
(14.7107 0.370551 0)
(14.0341 0.328333 0)
(13.4024 0.310459 0)
(12.801 0.295264 0)
(12.2338 0.26559 0)
(11.7462 0.232438 0)
(11.2969 0.220251 0)
(10.8619 0.2132 0)
(10.4475 0.201715 0)
(10.0601 0.18681 0)
(9.69848 0.176387 0)
(9.34894 0.169576 0)
(9.01494 0.170086 0)
(8.66811 0.175634 0)
(8.32351 0.167367 0)
(8.01103 0.146513 0)
(7.73121 0.135685 0)
(7.45865 0.134783 0)
(7.19917 0.123607 0)
(6.96137 0.126178 0)
(6.70175 0.130235 0)
(6.46882 0.102848 0)
(6.28112 0.0857206 0)
(6.09463 0.0957291 0)
(5.89275 0.101822 0)
(5.70071 0.0899568 0)
(5.53098 0.0798866 0)
(5.36321 0.0864705 0)
(5.19176 0.085093 0)
(5.03619 0.0639574 0)
(4.91205 0.06277 0)
(4.76631 0.0720177 0)
(4.63289 0.0732039 0)
(4.48827 0.0771865 0)
(4.34773 0.0612915 0)
(4.23928 0.0455575 0)
(4.1352 0.0566561 0)
(4.00333 0.0694889 0)
(3.87218 0.0743629 0)
(3.73023 0.0647633 0)
(3.61501 0.0571339 0)
(3.49256 0.064984 0)
(3.36499 0.0643642 0)
(3.24316 0.0624784 0)
(3.11669 0.0567645 0)
(3.01911 0.0535362 0)
(2.91194 0.0451937 0)
(2.83946 0.0350471 0)
(2.76065 0.0395914 0)
(2.67779 0.0394786 0)
(2.60734 0.038416 0)
(2.53764 0.0347688 0)
(2.47269 0.0264553 0)
(2.4189 0.0226189 0)
(2.37538 0.0187311 0)
(2.32679 0.0210202 0)
(2.2698 0.021773 0)
(2.21485 0.0311719 0)
(2.15097 0.0437451 0)
(2.07457 0.0384301 0)
(2.01814 0.026096 0)
(1.97463 0.0201011 0)
(1.92848 0.0213754 0)
(1.88358 0.0177755 0)
(1.84645 0.00969626 0)
(1.83192 0.0149727 0)
(1.78273 0.0197451 0)
(1.74974 0.0165193 0)
(1.70047 0.0225599 0)
(1.64858 0.0368843 0)
(1.57353 0.0420406 0)
(1.49031 0.0374953 0)
(1.43707 0.0307211 0)
(1.38554 0.011037 0)
(1.38335 0.0085205 0)
(1.34492 0.0217186 0)
(1.30235 0.0233038 0)
(1.25484 0.0255509 0)
(1.20134 0.0246897 0)
(1.16952 0.0184709 0)
(1.14551 0.0153887 0)
(1.12294 0.0072087 0)
(1.09956 -0.00137398 0)
(1.08322 0.00500397 0)
(1.07228 0.0167428 0)
(1.04574 0.0151314 0)
(1.02938 0.00461999 0)
(1.00896 0.00871478 0)
(0.972489 0.0114703 0)
(0.957279 0.00462842 0)
(0.942342 0.00797787 0)
(0.918983 0.0181494 0)
(0.88889 0.0244307 0)
(0.84759 0.0278229 0)
(0.810846 0.0228276 0)
(0.769898 0.0148247 0)
(0.743243 0.0115179 0)
(0.71647 0.0072227 0)
(0.696696 0.00247256 0)
(0.687793 -0.000581652 0)
(0.696575 -0.00753001 0)
(0.697095 -0.00469199 0)
(0.691837 0.0126211 0)
(0.669289 0.0220557 0)
(0.638908 0.016469 0)
(0.615476 0.00621448 0)
(0.610587 0.00140931 0)
(0.600716 -0.00428485 0)
(0.59942 -0.00188322 0)
(0.583684 0.0193793 0)
(0.544653 0.0282154 0)
(0.512209 0.0172698 0)
(0.487431 0.00303466 0)
(0.479727 0.00118869 0)
(0.460811 0.0034838 0)
(0.45909 0.00175171 0)
(0.458337 0.00386717 0)
(0.461653 0.0106857 0)
(0.448629 0.0119123 0)
(0.443803 -0.000243581 0)
(0.456218 -0.0038997 0)
(0.439184 -0.00203611 0)
(0.428834 0.0127331 0)
(0.378931 0.0245788 0)
(0.349437 0.0104291 0)
(0.3499 0.0018794 0)
(0.34281 -0.00286731 0)
(0.349881 -0.00481946 0)
(0.352177 -0.00768543 0)
(0.35675 -0.00641818 0)
(0.368588 0.00360266 0)
(0.37992 0.00287125 0)
(0.384425 0.000446744 0)
(0.37433 0.002714 0)
(0.353503 0.00233434 0)
(0.353368 -0.00883353 0)
(0.367287 -0.000935198 0)
(0.344306 0.0209986 0)
(0.317449 0.0188983 0)
(0.298871 0.00811878 0)
(0.281072 0.00664908 0)
(0.264891 -0.00225633 0)
(0.280066 -0.0116331 0)
(0.289823 -0.00916635 0)
(0.291795 -0.0078807 0)
(0.312527 0.00289986 0)
(0.293268 0.00815743 0)
(0.271212 0.00359844 0)
(0.259308 0.00448853 0)
(0.247195 0.0114181 0)
(0.248656 0.0114635 0)
(0.255756 0.00241777 0)
(0.244959 -0.0046936 0)
(0.244579 -0.00249041 0)
(0.233876 0.013044 0)
(0.211338 0.0166673 0)
(0.201944 0.00676266 0)
(0.184351 -0.00534537 0)
(0.186294 -0.0132382 0)
(0.213632 0.00179418 0)
(0.196962 0.0109024 0)
(0.192895 -0.000170946 0)
(0.201679 0.000400418 0)
(0.184725 -0.00474367 0)
(0.193561 -0.00935891 0)
(0.207625 0.00826571 0)
(0.179825 0.00932111 0)
(0.168307 0.00151917 0)
(0.144338 0.00902369 0)
(0.125691 0.0128815 0)
(0.107564 0.00569006 0)
(0.0939331 -0.00405109 0)
(0.106101 -0.00503932 0)
(0.123777 0.00283351 0)
(0.121085 -0.00249396 0)
(0.1341 -0.0145825 0)
(0.144764 -0.00202871 0)
(0.138996 0.00843711 0)
(0.131305 0.00396837 0)
(0.11852 0.00364052 0)
(0.122359 0.000708872 0)
(0.122132 -0.00795539 0)
(0.128932 -0.00647977 0)
(0.129965 0.000331941 0)
(0.149617 0.0042315 0)
(0.145402 0.00297415 0)
(0.136508 0.0133466 0)
(0.0980673 0.0198913 0)
(0.0802882 0.00504798 0)
(0.0806179 -0.0110598 0)
(0.094567 -0.0157463 0)
(0.115329 -0.00213412 0)
(0.126891 0.00501847 0)
(0.140053 0.00118143 0)
(0.122347 0.00625972 0)
(0.120181 0.00821789 0)
(0.108377 0.00183069 0)
(0.100257 0.000898402 0)
(0.0834906 0.010049 0)
(0.0709425 0.010253 0)
(0.0541942 0.00543828 0)
(0.043334 0.00600611 0)
(0.0282419 -0.000476161 0)
(0.0343081 -0.00350475 0)
(0.0274327 0.00660357 0)
(0.0188172 0.00714233 0)
(0.00914927 -0.00104537 0)
(0.0200637 -0.00257681 0)
(0.034338 -0.0139459 0)
(0.0847519 -0.0235223 0)
(0.108726 -0.00633177 0)
(0.105139 0.00472798 0)
(0.0985017 0.00536111 0)
(0.0819754 0.00797324 0)
(0.0689599 0.00327748 0)
(0.0667871 -0.00867982 0)
(0.0925068 -0.00194767 0)
(0.0636054 0.00826771 0)
(0.0699918 0.0060138 0)
(0.0645509 -0.0046694 0)
(0.0784653 -0.00337546 0)
(0.0586547 0.00257876 0)
(0.0726156 0.00429339 0)
(0.080597 0.0125896 0)
(0.0598912 0.00992505 0)
(0.0468151 0.00175468 0)
(0.0331486 0.00088159 0)
(0.0224101 0.00342437 0)
(0.0343525 -0.0059574 0)
(0.0505176 -0.0117963 0)
(0.0554156 -0.0141019 0)
(0.0834148 -0.0176834 0)
(0.101952 -0.0174372 0)
(0.142934 -0.0168747 0)
(0.185439 -0.00298168 0)
(0.187461 0.00795784 0)
(0.177007 0.00172295 0)
(0.172252 0.00363645 0)
(0.145595 0.0124657 0)
(0.120967 0.0109895 0)
(0.0902401 0.0155348 0)
(0.0709912 0.0166998 0)
(0.0520519 0.00952652 0)
(0.0338002 0.00607045 0)
(0.0389578 -0.00085069 0)
(0.0395984 -0.0110161 0)
(0.0505316 -0.010275 0)
(0.0568665 -0.00576538 0)
(0.0689579 0.000462778 0)
(0.0872797 0.00527654 0)
(0.0963242 -0.00172047 0)
(0.0922122 -0.00850618 0)
(0.103039 -0.0099199 0)
(0.121681 -0.011977 0)
(0.137373 -0.00699707 0)
(0.136285 0.00662493 0)
(0.121661 0.012857 0)
(0.103054 0.0059976 0)
(0.092071 0.00135544 0)
(0.0925347 -0.000827684 0)
(0.0815997 -0.00763097 0)
(0.0978234 -0.00925798 0)
(0.117159 0.000283706 0)
(0.123921 0.00327218 0)
(0.135586 0.00174654 0)
(0.134589 0.00153993 0)
(0.12561 0.00438178 0)
(0.119541 0.00294877 0)
(0.116031 -0.00158094 0)
(0.114647 0.00658007 0)
(0.100242 0.00890081 0)
(0.0939444 0.0020666 0)
(0.0831806 -0.00287266 0)
(0.0826493 -0.00437744 0)
(0.0816127 0.000819696 0)
(0.0785082 0.00412915 0)
(0.0956286 0.00516174 0)
(0.0844266 -0.000555097 0)
(0.0921676 -0.0042734 0)
(0.0931442 -0.00175692 0)
(0.0982561 -0.00136979 0)
(0.094192 -0.00384494 0)
(0.098356 -0.00766039 0)
(0.110293 0.00446797 0)
(0.0828382 0.0187565 0)
(0.060624 0.0125634 0)
(0.0637063 0.00677001 0)
(0.0484131 0.00366878 0)
(0.0459085 -0.00767411 0)
(0.0519002 -0.00960652 0)
(0.0545362 -0.00411828 0)
(0.0647075 0.00743831 0)
(0.0472153 0.00416967 0)
(0.058147 -0.0114496 0)
(0.0765048 -0.00983123 0)
(0.0805308 0.00268191 0)
(0.0950333 0.00860494 0)
(0.0771651 0.00582858 0)
(0.0678499 0.00430266 0)
(0.0591168 0.00555102 0)
(0.0385204 0.00489011 0)
(0.0284469 0.00890832 0)
(0.0139637 0.00735004 0)
(0.018042 0.0010764 0)
(0.00972844 -0.000919766 0)
(0.0065022 -0.000486946 0)
(0.0079245 -0.00881291 0)
(0.0469028 -0.0232592 0)
(0.0839413 -0.0171536 0)
(0.0869405 0.00112918 0)
(0.0708717 0.00343813 0)
(0.078966 -0.00122834 0)
(0.0927721 -0.00462684 0)
(0.122126 -0.00610781 0)
(0.144013 -0.000729477 0)
(0.140075 0.00266802 0)
(0.133412 0.0017111 0)
(0.115393 0.0064415 0)
(0.0934876 0.0180519 0)
(0.053306 0.0158974 0)
(0.0588495 -0.00314092 0)
(0.0732607 -0.012443 0)
(0.0896844 -0.0112172 0)
(0.106538 -0.00016164 0)
(0.0985034 0.00668021 0)
(0.102485 -0.00143383 0)
(0.101997 -0.00604858 0)
(0.110952 0.000822291 0)
(0.0944648 0.00654307 0)
(0.0765895 0.0104767 0)
(0.049125 0.0200018 0)
(0.0168247 0.0243419 0)
(-0.00614118 0.0150681 0)
(-0.0208019 0.00655682 0)
(-0.037082 0.0108624 0)
(-0.0495437 0.00490042 0)
(-0.0507547 -0.00635617 0)
(-0.0379745 -0.00297537 0)
(-0.0600557 -0.00345526 0)
(-0.0300821 -0.0154673 0)
(-0.00745055 -0.0130039 0)
(0.00231847 -0.0066972 0)
(0.0353233 -0.00713984 0)
(0.04812 -0.0109604 0)
(0.0773221 -0.009269 0)
(0.0741375 -0.012862 0)
(0.106004 -0.0172465 0)
(0.120014 -0.00703558 0)
(0.127349 -0.00348655 0)
(0.138093 -0.00696079 0)
(0.153797 -0.00826636 0)
(0.15661 -0.000715568 0)
(0.16361 0.00669654 0)
(0.146502 0.00320147 0)
(0.150446 -0.00689888 0)
(0.15317 -0.00678566 0)
(0.153415 -0.00279359 0)
(0.153019 0.0127256 0)
(0.121554 0.0184911 0)
(0.106323 0.0117743 0)
(0.0847428 0.0172556 0)
(0.0617383 0.019263 0)
(0.0303495 0.00267776 0)
(0.0360007 -0.00906104 0)
(0.047932 -0.00304907 0)
(0.0432322 0.00373959 0)
(0.0291248 0.0115929 0)
(0.0225288 0.00664536 0)
(0.0243915 0.00165106 0)
(0.00763492 0.00360533 0)
(0.017028 -0.00706118 0)
(0.0292994 -0.010872 0)
(0.0425247 -0.0112943 0)
(0.0635456 -0.0154955 0)
(0.0844464 -0.00529407 0)
(0.0922178 0.00771163 0)
(0.0720013 0.0063028 0)
(0.0576642 0.0131092 0)
(0.0393895 0.0143542 0)
(0.020352 0.00756111 0)
(-0.000492114 0.00510348 0)
(-0.00864506 -0.000424886 0)
(-0.0220718 -0.00308873 0)
(-0.0135512 -0.00670079 0)
(0.00636889 0.00174541 0)
(-0.00291681 0.00463794 0)
(0.0354414 -0.00534637 0)
(0.0565212 -0.00657991 0)
(0.0589292 -0.00758499 0)
(0.0625855 -0.00338415 0)
(0.0389217 0.00484989 0)
(0.0253675 0.000583823 0)
(0.024039 -0.0035401 0)
(0.0236559 0.00566482 0)
(-0.00147742 0.00102095 0)
(0.026003 -0.0105125 0)
(0.0574925 0.00296975 0)
(0.0444999 0.0130436 0)
(0.0266539 0.0101527 0)
(0.0104388 0.00684953 0)
(-0.00274836 -0.0040501 0)
(0.0142269 -0.0146581 0)
(0.0234006 -0.0110667 0)
(0.0225977 -0.00592954 0)
(0.0299446 -0.00165415 0)
(0.0282351 0.0068574 0)
(0.0344533 0.0151229 0)
(0.0088389 0.0114373 0)
(-0.000366972 0.00266245 0)
(-0.00888033 0.00266089 0)
(-0.0313947 0.00164709 0)
(-0.017921 -0.0080764 0)
(-0.00957749 -0.00958771 0)
(-0.00993031 -0.00210996 0)
(-0.0211182 0.00166878 0)
(-0.0174461 -0.00501288 0)
(0.266521 -0.839636 0)
(0.780029 -0.866064 0)
(1.33955 -0.843584 0)
(1.89053 -0.81848 0)
(2.44216 -0.840789 0)
(2.99182 -0.800164 0)
(3.52331 -0.817238 0)
(4.11154 -0.846496 0)
(4.6527 -0.822199 0)
(5.18619 -0.827603 0)
(5.72813 -0.893991 0)
(6.34802 -0.944274 0)
(6.9707 -0.908388 0)
(7.58347 -0.916034 0)
(8.22371 -0.956401 0)
(8.84922 -0.945895 0)
(9.4558 -0.8941 0)
(10.0523 -0.876392 0)
(10.6623 -0.919321 0)
(11.2816 -0.938261 0)
(11.8812 -0.912826 0)
(12.4371 -0.898018 0)
(13.0124 -0.92016 0)
(13.6699 -0.974566 0)
(14.3419 -1.04185 0)
(14.9997 -1.06949 0)
(15.6534 -1.05014 0)
(16.3478 -1.00123 0)
(17.0312 -0.967975 0)
(17.6882 -0.938192 0)
(18.3259 -0.90725 0)
(18.9436 -0.94521 0)
(19.5571 -0.99459 0)
(20.1915 -0.99581 0)
(20.8895 -1.00269 0)
(21.6066 -1.05695 0)
(22.314 -1.06129 0)
(23.0117 -1.08912 0)
(23.7763 -1.14623 0)
(24.5252 -1.11016 0)
(25.2106 -0.976011 0)
(25.7937 -0.714438 0)
(26.2731 -0.646992 0)
(26.7608 -0.873315 0)
(27.3211 -1.01442 0)
(28.0175 -1.14368 0)
(28.8567 -1.29876 0)
(29.5707 -1.03393 0)
(30.0316 -0.517921 0)
(30.4439 -0.627168 0)
(31.0442 -1.0251 0)
(31.6692 -0.808552 0)
(32.2471 -0.634657 0)
(32.8347 -0.938182 0)
(33.3124 -0.920842 0)
(33.6689 -0.566878 0)
(34.1151 -0.58858 0)
(34.6843 -0.871872 0)
(35.3009 -0.823401 0)
(35.8122 -0.595272 0)
(36.1538 -0.571241 0)
(36.3106 -0.504099 0)
(36.4923 -0.244358 0)
(36.7981 -0.032011 0)
(36.958 -0.00390488 0)
(36.809 0.0165207 0)
(36.6322 0.227689 0)
(36.5803 0.430778 0)
(36.4518 0.35734 0)
(36.0783 0.259203 0)
(35.6342 0.462875 0)
(35.2433 0.756493 0)
(34.8168 0.826294 0)
(34.3305 0.721858 0)
(33.8103 0.71047 0)
(33.2274 0.845198 0)
(32.5446 1.03136 0)
(31.7965 1.12532 0)
(31.0478 1.07477 0)
(30.3364 1.04346 0)
(29.5924 1.18142 0)
(28.749 1.38014 0)
(27.8034 1.47455 0)
(26.8379 1.46861 0)
(25.8583 1.49474 0)
(24.8541 1.5529 0)
(23.8494 1.54355 0)
(22.8549 1.5429 0)
(21.8338 1.56837 0)
(20.8169 1.55918 0)
(19.8181 1.53932 0)
(18.8474 1.49042 0)
(17.9088 1.4278 0)
(17.0228 1.35003 0)
(16.1812 1.26612 0)
(15.3874 1.20421 0)
(14.6433 1.09484 0)
(13.9738 0.981267 0)
(13.3502 0.923739 0)
(12.7648 0.874842 0)
(12.2154 0.791009 0)
(11.7252 0.705982 0)
(11.2635 0.665739 0)
(10.8301 0.637968 0)
(10.4195 0.602121 0)
(10.0383 0.56381 0)
(9.66901 0.536409 0)
(9.31885 0.515166 0)
(8.97669 0.512115 0)
(8.63886 0.516972 0)
(8.31365 0.490971 0)
(8.00676 0.446808 0)
(7.7062 0.417928 0)
(7.43537 0.398594 0)
(7.18701 0.375022 0)
(6.9332 0.372381 0)
(6.71203 0.363378 0)
(6.49686 0.318582 0)
(6.26959 0.288821 0)
(6.06061 0.292951 0)
(5.87184 0.292459 0)
(5.69297 0.271734 0)
(5.50745 0.257943 0)
(5.32383 0.252881 0)
(5.18226 0.24246 0)
(5.02008 0.21607 0)
(4.85599 0.207957 0)
(4.71877 0.20772 0)
(4.59746 0.205676 0)
(4.47143 0.208456 0)
(4.35499 0.188249 0)
(4.21187 0.167069 0)
(4.08943 0.179502 0)
(3.96416 0.194015 0)
(3.85344 0.199129 0)
(3.73918 0.192582 0)
(3.60645 0.180198 0)
(3.48864 0.18463 0)
(3.37585 0.184571 0)
(3.25669 0.185591 0)
(3.13735 0.166895 0)
(3.04079 0.151468 0)
(2.94032 0.13498 0)
(2.85633 0.117349 0)
(2.76197 0.123239 0)
(2.68387 0.114731 0)
(2.61993 0.102545 0)
(2.57061 0.10009 0)
(2.49529 0.0921604 0)
(2.43178 0.0742938 0)
(2.38158 0.0728967 0)
(2.31536 0.0841476 0)
(2.24309 0.0891771 0)
(2.16604 0.086757 0)
(2.13353 0.0958075 0)
(2.07724 0.0939093 0)
(2.03574 0.0733362 0)
(1.98773 0.0689403 0)
(1.92789 0.0692664 0)
(1.88268 0.0646021 0)
(1.82654 0.0425734 0)
(1.80791 0.0499959 0)
(1.75236 0.0634273 0)
(1.71622 0.0671864 0)
(1.64432 0.0794472 0)
(1.60374 0.0910157 0)
(1.556 0.117378 0)
(1.47064 0.100194 0)
(1.44264 0.0759666 0)
(1.39135 0.0434564 0)
(1.37337 0.0342767 0)
(1.3339 0.0609461 0)
(1.29799 0.0689328 0)
(1.24984 0.0769154 0)
(1.20167 0.0625241 0)
(1.18977 0.0387642 0)
(1.18181 0.032632 0)
(1.16869 0.0397077 0)
(1.11434 0.0414111 0)
(1.06428 0.022689 0)
(1.06086 0.0206066 0)
(1.05619 0.0280113 0)
(1.03416 0.0323739 0)
(0.989206 0.0482789 0)
(0.949301 0.039878 0)
(0.925804 0.0254499 0)
(0.89065 0.0294944 0)
(0.880439 0.0348107 0)
(0.875097 0.0455685 0)
(0.859668 0.0492858 0)
(0.856371 0.0540262 0)
(0.808302 0.0518847 0)
(0.777898 0.0413464 0)
(0.74432 0.0386053 0)
(0.69958 0.0255664 0)
(0.683167 0.000169943 0)
(0.688889 -0.00204177 0)
(0.658924 0.00882571 0)
(0.654849 0.0152274 0)
(0.667383 0.0306311 0)
(0.656696 0.0377306 0)
(0.633556 0.0223819 0)
(0.621822 0.014013 0)
(0.604696 0.0159751 0)
(0.565612 0.0199489 0)
(0.546935 0.0363246 0)
(0.546835 0.0446952 0)
(0.540315 0.0413081 0)
(0.513964 0.0308881 0)
(0.475768 0.0272775 0)
(0.450766 0.0181423 0)
(0.45311 0.0015764 0)
(0.452369 -0.00588689 0)
(0.469966 -0.000314883 0)
(0.47474 0.00677322 0)
(0.487174 -0.00653828 0)
(0.502147 0.00969773 0)
(0.462601 0.0307008 0)
(0.418501 0.0488166 0)
(0.382661 0.0561299 0)
(0.36167 0.0198735 0)
(0.362082 0.0053228 0)
(0.350853 0.00356134 0)
(0.348103 -0.00411149 0)
(0.343701 0.00122008 0)
(0.318008 -0.00964553 0)
(0.345582 -0.0262881 0)
(0.392522 -0.0184241 0)
(0.405111 0.0057634 0)
(0.386176 0.0280479 0)
(0.351758 0.0192029 0)
(0.340171 -0.00494291 0)
(0.331656 0.0106965 0)
(0.322931 0.0287742 0)
(0.339735 0.0271141 0)
(0.328992 0.0286026 0)
(0.294943 0.0279677 0)
(0.279362 0.00371162 0)
(0.278555 -0.0130116 0)
(0.268273 -0.00247765 0)
(0.251619 -0.0151182 0)
(0.283061 -0.00446728 0)
(0.268311 0.0334478 0)
(0.223413 0.0305118 0)
(0.199711 0.0200009 0)
(0.191879 -0.000529922 0)
(0.246836 -0.0197356 0)
(0.284467 0.00174164 0)
(0.255944 0.0163162 0)
(0.22705 0.013477 0)
(0.211967 0.0202175 0)
(0.227429 0.0142876 0)
(0.238492 0.0193797 0)
(0.206198 0.0193076 0)
(0.176636 -0.017197 0)
(0.20045 -0.0140461 0)
(0.204575 0.00934387 0)
(0.208422 -0.00555739 0)
(0.217688 0.00763776 0)
(0.188268 0.0122435 0)
(0.175595 -0.0144499 0)
(0.203589 0.00481293 0)
(0.199934 0.0294877 0)
(0.1732 0.0336615 0)
(0.130419 0.0336317 0)
(0.126699 0.0236081 0)
(0.116472 0.0260761 0)
(0.0847867 0.00560601 0)
(0.094181 -0.0244897 0)
(0.126716 -0.0174769 0)
(0.137007 -0.00681039 0)
(0.126605 -0.0082926 0)
(0.111936 -0.00185801 0)
(0.134518 0.00615225 0)
(0.135149 0.0181971 0)
(0.110751 0.00646211 0)
(0.129404 -0.00313191 0)
(0.11842 0.00191876 0)
(0.0980751 -7.05892e-05 0)
(0.0953642 -0.0207014 0)
(0.141345 -0.0187444 0)
(0.147211 0.010576 0)
(0.127296 0.0351642 0)
(0.107523 0.0371205 0)
(0.105602 0.0139323 0)
(0.0868687 -0.00226022 0)
(0.0719478 -0.0176706 0)
(0.0867869 -0.0294007 0)
(0.137018 -0.028845 0)
(0.164219 0.00376129 0)
(0.136172 0.0140525 0)
(0.155762 0.0053685 0)
(0.149877 0.0179926 0)
(0.114182 0.0237365 0)
(0.0919057 0.0195259 0)
(0.103415 0.0191102 0)
(0.080773 0.0228116 0)
(0.0663752 0.0204683 0)
(0.053599 0.0101206 0)
(0.0413109 0.0045509 0)
(0.0313276 0.00954012 0)
(0.0377243 0.0115289 0)
(0.0188402 0.000423611 0)
(0.0353606 -0.0223586 0)
(0.0580821 -0.0501084 0)
(0.0971774 -0.0502795 0)
(0.105095 -0.0126868 0)
(0.111615 0.006763 0)
(0.1084 0.0198392 0)
(0.0844582 0.02388 0)
(0.0720924 0.0137584 0)
(0.0591294 -0.0125236 0)
(0.0759188 0.00749902 0)
(0.0318452 0.0166141 0)
(0.0588159 -0.00516479 0)
(0.0621819 -0.00200964 0)
(0.0563785 0.0111033 0)
(0.0313168 0.00532171 0)
(0.0587695 -0.0243265 0)
(0.104056 0.00147381 0)
(0.0962592 0.0249678 0)
(0.0791489 0.0256946 0)
(0.0430779 0.0240554 0)
(0.024694 -0.00483695 0)
(0.0588466 -0.0228511 0)
(0.0556919 -0.00949719 0)
(0.04638 -0.0193398 0)
(0.0562339 -0.0292931 0)
(0.061627 -0.0432122 0)
(0.0983096 -0.0670156 0)
(0.15759 -0.0417024 0)
(0.185785 0.000741151 0)
(0.17774 0.0133922 0)
(0.15512 0.0273935 0)
(0.124974 0.0387967 0)
(0.102854 0.0438234 0)
(0.0596399 0.0341526 0)
(0.0772184 0.0212059 0)
(0.0673139 0.028494 0)
(0.0469824 0.00732441 0)
(0.0763568 -0.00398307 0)
(0.0615074 -0.000122504 0)
(0.0441698 -0.00603088 0)
(0.0415778 -0.0119489 0)
(0.0583077 -0.0297748 0)
(0.11113 -0.0314626 0)
(0.145293 -0.00110835 0)
(0.117358 0.00345775 0)
(0.109641 -0.0169304 0)
(0.120477 -0.020277 0)
(0.121759 -0.00469486 0)
(0.11203 0.0113179 0)
(0.115833 0.022819 0)
(0.0994746 0.0254122 0)
(0.0759533 0.0108816 0)
(0.076746 0.0123791 0)
(0.0394592 0.00352128 0)
(0.0395845 -0.0257669 0)
(0.0798299 -0.0259374 0)
(0.107479 -0.0209122 0)
(0.133039 -0.0119063 0)
(0.138161 0.00927606 0)
(0.121992 0.0108173 0)
(0.126388 0.00726884 0)
(0.113938 0.00668106 0)
(0.11149 0.00950983 0)
(0.113215 0.0127231 0)
(0.106108 0.0160459 0)
(0.0831313 0.0151491 0)
(0.0636012 0.00669684 0)
(0.0574387 0.00404784 0)
(0.0642406 -0.017722 0)
(0.114453 -0.0108512 0)
(0.111195 0.00388593 0)
(0.109289 -0.00438508 0)
(0.108463 -0.00453034 0)
(0.109743 6.56243e-05 0)
(0.0974355 0.00346316 0)
(0.0882335 -0.00843694 0)
(0.0986684 0.0109062 0)
(0.0795398 0.0305814 0)
(0.0839207 0.00639902 0)
(0.0984232 0.005106 0)
(0.0960464 0.0146649 0)
(0.0830283 0.0039294 0)
(0.0544707 0.00198698 0)
(0.0384742 -0.00808552 0)
(0.0640561 0.00177993 0)
(0.058007 0.00399712 0)
(0.0593807 -0.0152816 0)
(0.0590266 -0.0101951 0)
(0.0638182 -0.0186027 0)
(0.109023 -0.00301183 0)
(0.088785 0.0241504 0)
(0.0750636 0.0159507 0)
(0.0731176 0.0257308 0)
(0.0392065 0.0279905 0)
(0.0296697 0.0178544 0)
(0.034344 0.00521299 0)
(0.0553377 0.00597739 0)
(0.0341222 0.015531 0)
(0.0142374 0.00533496 0)
(0.0139144 -0.0284436 0)
(0.051263 -0.0508763 0)
(0.0666207 -0.021556 0)
(0.0513348 0.0130275 0)
(0.0329802 0.00493177 0)
(0.0482832 -0.0195339 0)
(0.0674946 -0.0373449 0)
(0.110796 -0.0435889 0)
(0.152424 -0.0144257 0)
(0.153577 0.0111966 0)
(0.139506 0.0266858 0)
(0.0989356 0.0370372 0)
(0.067902 0.0473807 0)
(0.0495922 0.0213273 0)
(0.0725239 -0.0146151 0)
(0.0757958 -0.0165146 0)
(0.0747108 -0.0210064 0)
(0.0930111 -0.00769526 0)
(0.0952677 -0.00143673 0)
(0.106371 -0.00117977 0)
(0.0861008 -0.00123191 0)
(0.0949644 0.00789171 0)
(0.075163 0.0293474 0)
(0.0458785 0.0361952 0)
(0.0252198 0.0411773 0)
(0.0189359 0.0319526 0)
(0.0349992 0.0238117 0)
(0.0160966 0.025121 0)
(0.00383841 0.0184437 0)
(0.00237904 0.00897438 0)
(-0.00332564 -0.00534418 0)
(-0.00528582 0.0122021 0)
(-0.0441904 -0.00471081 0)
(-0.0106725 -0.0375597 0)
(-0.00249307 -0.020372 0)
(-0.00203021 -0.036811 0)
(0.0568507 -0.0397813 0)
(0.0708167 -0.0319012 0)
(0.0924965 -0.0179019 0)
(0.0807034 -0.016215 0)
(0.0913981 -0.0295323 0)
(0.0959073 -0.0141616 0)
(0.102057 -0.0150935 0)
(0.116434 -0.0191992 0)
(0.121933 -0.010596 0)
(0.115384 -0.00934373 0)
(0.140103 0.0022874 0)
(0.131376 0.0094138 0)
(0.12624 -0.000918617 0)
(0.109695 0.00309468 0)
(0.0994758 0.00101838 0)
(0.108479 0.0177431 0)
(0.10445 0.0266352 0)
(0.100725 0.0233915 0)
(0.0867926 0.0257498 0)
(0.0935872 0.0345635 0)
(0.0646327 0.0220179 0)
(0.045747 -0.00900857 0)
(0.0593372 -0.00434697 0)
(0.0417745 0.0165034 0)
(0.0226349 0.0101513 0)
(0.0518839 -0.00047273 0)
(0.0497384 0.014586 0)
(0.0296295 0.00563677 0)
(0.0477093 -0.0128088 0)
(0.0371299 -0.0131088 0)
(0.0433651 -0.0219543 0)
(0.0579915 -0.0258719 0)
(0.0660133 -0.0228525 0)
(0.0968848 0.00536456 0)
(0.0717754 0.02921 0)
(0.0511135 0.0207065 0)
(0.0657162 0.0240139 0)
(0.0433097 0.0341175 0)
(0.0143152 0.0259669 0)
(-0.00544332 0.0239999 0)
(-0.0482137 0.00995266 0)
(-0.0349468 -0.020686 0)
(-0.015122 -0.0109424 0)
(-0.0119899 -0.0326229 0)
(0.0692772 -0.0529747 0)
(0.109177 -0.0166054 0)
(0.0979521 0.00215096 0)
(0.0754527 0.023154 0)
(0.0308552 0.0316311 0)
(0.0112304 0.0133238 0)
(-0.00788401 0.00433438 0)
(-0.0166998 0.01871 0)
(-0.0355982 -0.00422026 0)
(-0.00606883 -0.0502973 0)
(0.045924 -0.022603 0)
(0.0548075 0.0158779 0)
(0.0445994 0.0218682 0)
(0.0291197 0.0202187 0)
(0.0131121 -0.00214638 0)
(0.0256444 -0.0142848 0)
(0.00433084 0.000506713 0)
(-0.015718 -0.0030344 0)
(-0.00770146 -0.00586595 0)
(-0.00228261 -0.0136004 0)
(0.0483385 0.00241628 0)
(0.0467916 0.0211806 0)
(0.0423625 0.0134375 0)
(0.0201458 0.0261388 0)
(-0.0126688 0.00535143 0)
(0.0140224 -0.0166629 0)
(0.0048055 -0.00102779 0)
(-0.017051 0.0105359 0)
(-0.0448822 0.00208974 0)
(-0.0333369 -0.0374751 0)
(0.261753 -1.34478 0)
(0.758531 -1.38606 0)
(1.27245 -1.40581 0)
(1.84141 -1.38627 0)
(2.39755 -1.39288 0)
(2.93907 -1.35761 0)
(3.5052 -1.39748 0)
(4.09679 -1.41779 0)
(4.63445 -1.35945 0)
(5.17488 -1.36628 0)
(5.72645 -1.47055 0)
(6.2901 -1.56329 0)
(6.85733 -1.54002 0)
(7.44719 -1.56187 0)
(8.06786 -1.59584 0)
(8.63606 -1.56241 0)
(9.22024 -1.51358 0)
(9.84506 -1.50921 0)
(10.4772 -1.54507 0)
(11.0728 -1.52899 0)
(11.6288 -1.46285 0)
(12.2182 -1.46083 0)
(12.8459 -1.55633 0)
(13.4799 -1.64105 0)
(14.0976 -1.67876 0)
(14.7148 -1.69556 0)
(15.3327 -1.71119 0)
(15.9863 -1.69088 0)
(16.6397 -1.65216 0)
(17.2932 -1.62792 0)
(17.9413 -1.58557 0)
(18.559 -1.57592 0)
(19.1831 -1.60697 0)
(19.8351 -1.66385 0)
(20.557 -1.72569 0)
(21.2734 -1.77966 0)
(21.9686 -1.78783 0)
(22.6621 -1.84154 0)
(23.3131 -1.88282 0)
(23.8859 -1.78099 0)
(24.4462 -1.58736 0)
(25.0792 -1.30061 0)
(25.7811 -1.20367 0)
(26.3932 -1.40168 0)
(26.9738 -1.62575 0)
(27.6664 -1.8871 0)
(28.3673 -1.9864 0)
(28.8736 -1.5586 0)
(29.373 -1.04672 0)
(29.9884 -1.23745 0)
(30.4861 -1.63057 0)
(30.978 -1.45723 0)
(31.7156 -1.29795 0)
(32.3732 -1.37908 0)
(32.7109 -1.18701 0)
(32.9688 -0.977568 0)
(33.4699 -1.21479 0)
(34.2342 -1.57212 0)
(35.0241 -1.44552 0)
(35.4819 -1.00381 0)
(35.5485 -0.702547 0)
(35.4858 -0.581037 0)
(35.6736 -0.537816 0)
(36.0975 -0.359579 0)
(36.3807 -0.0287393 0)
(36.3753 0.165796 0)
(36.3828 0.241037 0)
(36.4021 0.441373 0)
(36.1404 0.716938 0)
(35.5843 0.829751 0)
(35.1068 0.893253 0)
(34.7892 1.07191 0)
(34.4222 1.23422 0)
(33.914 1.26745 0)
(33.3177 1.33849 0)
(32.6475 1.52342 0)
(31.9336 1.74801 0)
(31.2263 1.86706 0)
(30.5027 1.82536 0)
(29.7358 1.83689 0)
(28.9049 2.03272 0)
(28.0457 2.292 0)
(27.1489 2.41876 0)
(26.2243 2.44612 0)
(25.2509 2.4998 0)
(24.287 2.55112 0)
(23.3216 2.54388 0)
(22.3397 2.55884 0)
(21.3524 2.58643 0)
(20.3704 2.56163 0)
(19.4205 2.50863 0)
(18.5065 2.4284 0)
(17.6129 2.32194 0)
(16.7834 2.19596 0)
(15.9742 2.07161 0)
(15.2202 1.95658 0)
(14.5212 1.79314 0)
(13.8658 1.62902 0)
(13.2533 1.52653 0)
(12.688 1.43718 0)
(12.1595 1.31055 0)
(11.6702 1.19052 0)
(11.2006 1.12094 0)
(10.7687 1.06094 0)
(10.3677 0.997472 0)
(9.99064 0.941114 0)
(9.62023 0.901267 0)
(9.26858 0.865646 0)
(8.9212 0.854188 0)
(8.59418 0.842601 0)
(8.28438 0.803958 0)
(7.97594 0.757853 0)
(7.66795 0.711031 0)
(7.40079 0.65807 0)
(7.15634 0.629718 0)
(6.90304 0.604922 0)
(6.70111 0.569981 0)
(6.49623 0.547688 0)
(6.2467 0.524499 0)
(6.02756 0.495537 0)
(5.84326 0.471572 0)
(5.66756 0.456262 0)
(5.47683 0.450378 0)
(5.28768 0.412676 0)
(5.15703 0.390854 0)
(4.98733 0.39184 0)
(4.81467 0.365994 0)
(4.68479 0.332868 0)
(4.56416 0.323247 0)
(4.44007 0.322347 0)
(4.32506 0.321916 0)
(4.17512 0.313166 0)
(4.04836 0.306997 0)
(3.92994 0.306965 0)
(3.82444 0.301419 0)
(3.72359 0.313679 0)
(3.59361 0.309418 0)
(3.47766 0.297784 0)
(3.37148 0.297211 0)
(3.25941 0.302265 0)
(3.15205 0.274026 0)
(3.05144 0.250425 0)
(2.95471 0.229488 0)
(2.86583 0.21306 0)
(2.76494 0.212548 0)
(2.68445 0.182833 0)
(2.62849 0.152892 0)
(2.58482 0.161311 0)
(2.50518 0.16652 0)
(2.43159 0.13556 0)
(2.38181 0.135404 0)
(2.31842 0.160348 0)
(2.23548 0.172179 0)
(2.15849 0.141429 0)
(2.12888 0.132045 0)
(2.06943 0.135763 0)
(2.0342 0.116278 0)
(1.99133 0.128867 0)
(1.91215 0.129243 0)
(1.86097 0.120286 0)
(1.80529 0.0850804 0)
(1.7805 0.0901273 0)
(1.71524 0.112461 0)
(1.67291 0.125966 0)
(1.60816 0.135806 0)
(1.57395 0.127397 0)
(1.54062 0.177249 0)
(1.46352 0.151724 0)
(1.44232 0.111106 0)
(1.3931 0.0819947 0)
(1.37423 0.067629 0)
(1.32623 0.0982273 0)
(1.29169 0.110308 0)
(1.2467 0.124432 0)
(1.20057 0.0872839 0)
(1.2094 0.0394553 0)
(1.20439 0.0379622 0)
(1.1875 0.076465 0)
(1.13946 0.10523 0)
(1.08438 0.05926 0)
(1.0632 0.0262873 0)
(1.03862 0.0435804 0)
(1.0083 0.0715609 0)
(0.970544 0.0942031 0)
(0.937546 0.0749234 0)
(0.902696 0.0631478 0)
(0.857676 0.0527867 0)
(0.854899 0.0329639 0)
(0.861725 0.0447953 0)
(0.857414 0.0469173 0)
(0.863542 0.0731641 0)
(0.819054 0.0922093 0)
(0.791866 0.0751498 0)
(0.757799 0.0849926 0)
(0.703395 0.0637425 0)
(0.686579 0.00846224 0)
(0.68534 0.0171262 0)
(0.655873 0.0298849 0)
(0.655587 0.00481668 0)
(0.663825 0.0209813 0)
(0.658779 0.0516508 0)
(0.624738 0.0421881 0)
(0.618914 0.0311167 0)
(0.612488 0.0539682 0)
(0.559631 0.0581381 0)
(0.5401 0.0406931 0)
(0.541762 0.0372837 0)
(0.542578 0.0518469 0)
(0.527643 0.0680108 0)
(0.486632 0.0629484 0)
(0.474356 0.0265951 0)
(0.484023 0.00152811 0)
(0.469928 -0.0109829 0)
(0.47911 -0.0102898 0)
(0.463894 -0.00358727 0)
(0.474733 -0.0258528 0)
(0.508745 0.0219136 0)
(0.476783 0.0824134 0)
(0.431658 0.0938236 0)
(0.389015 0.0817222 0)
(0.367492 0.0308553 0)
(0.354928 0.0136383 0)
(0.341851 0.0115472 0)
(0.345097 0.00320062 0)
(0.330428 0.0228851 0)
(0.312142 -0.00799241 0)
(0.328999 -0.0708782 0)
(0.381843 -0.0570665 0)
(0.400058 0.00748126 0)
(0.391942 0.0574919 0)
(0.35465 0.0502125 0)
(0.324016 0.0115747 0)
(0.337218 0.0175502 0)
(0.325183 0.0144745 0)
(0.343067 0.0146891 0)
(0.33667 0.0534042 0)
(0.296561 0.0575461 0)
(0.2799 0.0141463 0)
(0.282165 0.000453662 0)
(0.260393 0.0188449 0)
(0.238768 -0.021692 0)
(0.269951 -0.0131357 0)
(0.248443 0.0677979 0)
(0.203994 0.0718465 0)
(0.176729 0.0364538 0)
(0.173181 -0.034627 0)