/*--------------------------------*- C++ -*----------------------------------*\
| =========                 |                                                 |
| \\      /  F ield         | OpenFOAM: The Open Source CFD Toolbox           |
|  \\    /   O peration     | Version:  v2012                                 |
|   \\  /    A nd           | Website:  www.openfoam.com                      |
|    \\/     M anipulation  |                                                 |
\*---------------------------------------------------------------------------*/
FoamFile
{
    version     2.0;
    format      ascii;
    class       volScalarField;
    location    "250";
    object      aE;
}
// * * * * * * * * * * * * * * * * * * * * * * * * * * * * * * * * * * * * * //

dimensions      [0 0 0 0 0 0 0];


internalField   nonuniform List<scalar> 
65536
(
1.02862
0.837799
1.57107
1.13599
1.8566
0.872821
1.95019
0.696209
1.88988
0.941201
1.78142
1.10257
1.76514
0.999305
1.74995
1.27695
1.4057
1.82677
0.793395
1.92483
0.932434
1.74734
1.64052
1.245
1.7247
1.18064
1.81164
1.9396
1.52142
0.967107
1.76014
1.54085
1.31762
2.0168
1.18094
1.08135
1.62902
1.66671
0.984606
1.95722
1.07742
1.65382
1.28472
1.05835
1.1481
1.23753
0.699102
1.83233
0.61663
0.63685
0.848171
0.562311
0.584554
1.13178
1.72889
1.94213
1.94059
3.35483
4.00725
3.74524
4.06512
4.16442
4.41835
4.43644
4.48492
4.48222
4.29233
4.56907
4.55114
4.64903
4.72697
4.64334
4.75676
4.76785
4.85172
4.88952
4.72671
4.80326
4.82811
4.83036
4.88065
4.66944
4.82314
4.77608
4.91368
4.95532
4.94021
4.95084
5.00742
4.94588
4.94559
4.96933
4.84465
4.87094
4.90913
4.76518
4.81151
4.8618
4.68602
4.97746
4.87502
4.87153
5.01955
4.9658
4.91759
4.89247
4.9678
4.9722
4.96431
4.91967
4.72369
4.95776
4.90792
4.81964
5.00075
4.95515
4.9672
4.95373
4.92271
5.011
4.95129
4.99214
4.91248
4.86397
4.99492
4.89859
4.93226
4.93027
4.85412
4.91603
5.00748
4.89194
4.88159
4.89097
4.95936
4.93051
4.8559
4.87111
4.9293
4.92592
4.88268
4.93875
4.88445
4.88185
4.75179
4.90209
4.88266
4.8868
4.92647
4.71501
4.89826
4.91106
4.79219
4.93712
4.90938
4.92025
4.83912
4.99089
4.74679
4.89735
4.83242
4.91545
4.87533
4.89636
4.94699
4.91263
4.83612
4.75354
4.89207
4.70826
4.87204
4.89135
4.89904
4.94189
4.94938
4.9705
4.91103
4.89965
4.99031
4.95425
4.88833
4.94944
5.04383
4.94097
4.94605
4.9406
4.94867
4.9335
5.01165
4.88084
5.01792
4.88959
4.89575
4.93841
5.00231
4.94531
4.90596
4.97226
4.92284
4.90784
4.83813
4.94571
4.73718
4.93684
4.91914
4.93788
4.95734
4.87394
4.92321
4.89647
4.95337
4.99454
4.89929
4.88147
4.85535
4.7732
4.84875
4.8616
4.91988
4.97211
4.83966
4.95779
4.74924
4.99432
4.88908
4.87951
4.86014
4.95191
4.92633
4.92907
4.94287
4.8559
4.93154
4.87752
4.81234
4.8752
4.84878
4.9702
4.90498
4.88782
4.99969
4.91188
4.91443
4.95323
4.88035
5.01433
4.78649
4.91519
5.01175
4.90092
4.9691
4.92473
4.91523
4.97038
4.788
4.92106
5.00077
4.95971
4.88466
4.94498
4.9369
4.74912
4.91836
4.9537
4.95657
4.92318
4.86539
4.90015
4.86163
4.86976
4.93711
4.92131
4.89211
4.96365
4.94875
4.86349
4.99055
4.92062
4.9029
4.86923
4.92482
4.94924
4.93011
4.87328
4.93085
4.94676
4.72837
4.93205
4.86915
4.88346
4.91015
4.90201
4.85581
4.88886
4.93603
4.93128
4.84113
4.83871
4.86674
4.73994
4.88183
4.84593
4.91522
4.77671
4.90427
4.75339
4.83922
4.73547
4.87189
4.82989
4.89534
4.92806
4.89873
4.86521
4.93708
4.78922
4.89079
4.94561
4.92909
4.95314
4.92631
4.94651
5.02132
4.92756
4.83598
4.84406
4.92341
4.85417
4.86793
5.00358
4.9296
4.91547
4.91762
4.91109
4.80997
4.88797
4.96336
4.92457
4.89541
4.94509
4.86875
4.89424
4.89792
5.00838
5.00027
4.88512
4.97438
4.96002
4.9742
4.83481
4.93527
4.89887
5.01022
4.84523
4.9086
4.87837
4.88308
4.88122
4.87324
4.94468
4.89137
4.91832
4.92279
4.89826
4.89677
4.983
4.86987
4.90927
4.98877
4.89683
4.94336
4.98664
4.93864
4.86082
4.91148
4.8767
4.8166
4.91384
4.87714
4.9336
4.94599
4.99514
4.97716
4.99791
4.94184
4.91898
4.95087
4.85491
4.92233
4.76377
4.936
4.82936
4.91509
4.94806
4.90495
4.95935
4.93549
4.93876
4.93629
4.98174
5.03747
4.98085
4.83152
4.95078
4.9528
4.94133
4.97731
4.91392
4.91997
4.80494
4.87405
4.96343
4.92175
4.92944
4.91363
4.94031
4.9237
4.93731
4.88038
4.93423
4.91493
4.91948
4.95987
4.91665
4.91693
5.01512
4.89981
4.96547
4.89258
4.7685
4.96965
4.9129
4.93062
4.97697
4.93424
4.80661
4.92981
4.99372
4.79763
4.85823
4.93757
4.949
4.93659
4.94687
4.92358
5.00386
4.95161
4.96426
4.90578
4.96652
5.0457
4.92249
4.94814
4.95571
4.93792
4.96471
4.9672
4.8952
4.9301
4.68744
4.95783
4.91731
4.89978
4.93896
4.88551
4.91034
4.9851
4.88794
4.91664
4.86641
4.85006
4.98775
4.8651
4.85701
4.92869
4.89889
4.9943
4.93585
4.94727
4.78658
4.88991
4.85384
4.77912
4.91409
5.02245
4.92381
4.86137
4.93226
4.96832
4.90584
4.90861
4.79437
4.93034
4.95494
4.93708
4.93445
4.9775
4.69785
4.89279
4.68908
4.86493
4.95429
4.98403
4.88602
4.97996
4.94966
4.88785
4.82942
4.88702
4.93868
4.92851
4.89521
2.03016
3.16016
0.616815
3.17769
0.238277
3.16751
0.723791
2.78144
1.82525
1.57642
2.48053
1.13426
2.44744
1.37842
2.18827
1.12709
2.25812
1.04845
2.3638
1.47724
1.70561
2.09438
0.466385
2.96542
0.328832
2.75413
1.12741
1.09175
1.70655
2.21075
0.813801
2.15179
0.886962
0.519048
1.95241
1.16502
1.09993
0.99508
1.92151
0.603409
1.83396
1.57248
1.29856
1.06969
1.32982
1.55641
2.07147
0.575757
2.06771
2.08709
1.92911
2.04173
1.70947
1.10478
0.84704
2.18215
1.59502
1.90506
2.29937
1.50561
2.40217
2.2431
2.33425
2.10465
2.1316
1.84186
1.5817
2.2413
1.96227
2.12797
2.17413
1.73425
2.07954
2.02893
2.2105
2.30188
1.70806
1.95694
1.91404
1.9165
2.04183
1.44167
1.95638
1.61667
2.12964
2.01333
1.97414
1.85354
2.11231
1.92015
1.9062
2.10508
1.79175
1.87827
1.99878
1.83096
1.91071
2.02364
1.44867
2.36408
1.92209
1.78804
2.31321
2.08382
1.85589
1.75785
2.14236
2.10738
2.16716
2.08067
1.49598
2.15319
2.00116
1.73327
2.33708
2.11195
2.0565
1.99744
1.94099
2.23386
1.94023
2.21847
1.87535
1.69313
2.26686
1.87062
1.99303
1.95908
1.66397
1.90645
2.20555
1.74711
1.77585
1.77965
2.00066
1.96592
1.76193
1.78618
2.01303
1.98299
1.89746
2.09606
1.88412
2.00473
1.51505
1.97608
1.95575
1.97683
2.17887
1.50479
2.06112
2.09263
1.69458
2.06985
2.00528
2.03001
1.83636
2.39079
1.54571
2.03139
1.87387
1.99998
1.99123
1.84423
2.04452
1.97856
1.77884
1.55568
2.11878
1.48039
1.91284
1.95028
1.89309
2.00242
2.06527
2.12629
1.90844
1.86564
2.14971
2.0045
1.77436
1.9907
2.3342
1.95671
1.97421
2.01281
2.08396
2.00261
2.31979
1.8379
2.42293
1.98325
1.95792
2.18664
2.32041
2.11092
1.96208
2.16241
2.01903
1.90393
1.72876
2.14711
1.51066
2.04172
1.94492
1.91798
2.0962
1.70006
1.93933
1.76615
2.03964
2.23045
1.89417
1.90041
1.85146
1.60524
1.77452
1.80764
1.9285
2.15366
1.73349
2.21751
1.5845
2.41135
2.04612
2.05698
2.00951
2.19728
2.12872
2.08743
2.05641
1.69702
2.03027
1.92557
1.77946
1.97241
1.79138
2.20627
1.99149
1.98611
2.24554
1.97314
1.90576
2.09526
1.85164
2.36998
1.68451
2.05037
2.30903
1.89714
2.07129
1.81838
1.90488
2.13157
1.63204
1.96914
2.19672
2.01855
1.80332
2.06454
2.04204
1.52138
2.00064
2.18458
2.1432
2.03558
1.80705
2.0426
2.06343
1.89108
2.07071
1.97596
1.8667
2.09636
1.96511
1.67577
2.15431
1.95808
1.94486
1.91583
2.03897
2.0417
2.10099
1.92163
2.05325
2.25323
1.60602
2.16783
1.89396
1.87416
2.00977
2.0745
1.83113
2.20505
2.17892
2.19141
1.94178
1.87499
2.04705
1.75496
2.18518
2.0123
2.236
1.78341
2.19661
1.75598
2.13444
1.9424
2.14615
1.83163
1.94915
2.13205
1.98986
1.8341
2.14821
1.55105
1.83646
1.98772
1.91243
1.98939
2.03381
2.09909
2.41177
2.12801
1.90491
1.87812
2.18404
1.94274
1.91538
2.36539
2.10187
2.04257
2.08379
2.04855
1.68642
2.01923
2.23187
2.1473
1.89094
2.06825
1.89172
1.94648
1.94511
2.35351
2.22667
1.86558
2.10133
2.04732
2.11509
1.67713
2.05455
1.94981
2.28579
1.75849
1.97982
1.84781
1.85613
1.92078
1.89721
2.13048
1.95786
2.03024
2.13628
1.9277
1.99969
2.25255
1.83726
2.04312
2.24574
1.94672
2.15996
2.34864
2.1653
1.89709
2.10627
1.96066
1.78057
2.08593
1.87509
1.99973
1.98454
2.14202
2.05255
2.07613
2.03206
1.94734
2.08233
1.84567
2.17336
1.80943
2.24256
1.87268
2.04667
2.09142
1.89868
2.12167
1.91921
1.9183
1.93983
2.15148
2.38355
2.17253
1.75317
2.09101
2.04703
1.99754
2.09923
2.0134
1.97019
1.73252
1.84345
2.11725
1.86494
1.82649
1.76294
1.94569
1.99744
2.03201
1.87614
2.06168
1.91938
1.85882
2.03764
1.86772
1.87617
2.35952
1.89808
2.16242
1.895
1.60363
2.18749
1.92993
1.93549
2.16489
1.94193
1.57475
1.94014
2.13223
1.49787
1.71608
2.04335
2.02443
1.88964
2.06744
1.82219
2.11884
1.87147
1.94052
1.77856
2.03026
2.31094
1.88342
2.03053
1.97261
1.98716
2.11178
2.15175
1.99033
2.15899
1.4516
2.24622
2.0407
1.92024
2.04078
1.8399
1.84694
2.16229
1.8631
2.04178
1.94151
1.87213
2.30509
1.97086
1.90804
2.08692
2.00625
2.27212
1.99718
2.19247
1.78202
2.02664
1.88014
1.68313
2.02122
2.38198
1.9687
1.80478
1.92296
2.13248
1.92133
1.94633
1.63117
1.98514
2.07827
2.07508
2.07928
2.35731
1.62144
2.2138
1.51394
1.8806
2.1508
2.21146
1.87974
2.32349
2.09147
2.04172
1.87738
1.9145
2.03729
2.05283
1.79483
1.27983
0.543714
2.46065
0.857858
2.39909
1.79257
0.915542
2.67437
0.465406
3.98349
0.451064
4.05167
0.340622
3.95175
0.160726
3.65858
1.44517
1.18359
3.35763
0.19566
3.74768
0.321142
3.39936
1.30913
2.45266
1.83842
1.94447
3.33296
0.655913
3.03909
1.48224
0.923695
3.39153
1.82885
2.43308
2.59439
1.90174
2.24127
1.12243
2.32839
1.38981
1.11248
1.85791
1.93295
1.90865
1.62534
1.50405
2.48497
0.558635
0.264198
0.669806
0.628773
1.58095
0.812235
1.04286
1.12307
0.933416
2.36409
1.3203
2.25064
1.30837
1.60132
1.70583
1.62177
1.67234
1.86416
2.48491
1.39477
1.38938
1.32723
1.12373
1.84186
1.25499
1.3764
1.21126
0.845535
1.68276
1.32605
1.48436
1.46024
1.42459
2.23389
1.34368
1.95108
0.841929
1.33444
1.10347
1.63074
1.06639
1.29716
1.44964
1.17599
1.51887
1.61451
1.70808
1.61952
1.52153
1.38658
2.26732
0.897158
1.4388
1.77928
0.860621
1.22413
1.62678
1.69195
1.07974
1.25873
1.06549
1.2641
2.10134
1.44468
1.43268
1.7737
0.876819
1.27554
1.4724
1.54996
1.47539
1.01094
1.5445
0.819715
1.53382
1.86533
0.850564
1.50351
1.44652
1.55491
2.02206
1.53072
1.02834
1.63201
1.40845
1.50211
1.34051
1.31115
1.6614
1.76585
1.38845
1.4472
1.53125
1.34216
1.69411
1.35473
2.15141
1.53564
1.45784
1.43151
1.23292
2.28417
1.358
1.17637
1.83237
1.38599
1.3402
1.36754
1.51842
0.83042
2.19217
1.46032
1.40998
1.58282
1.17484
1.92416
1.48096
1.50614
1.79366
2.07909
1.10608
2.17854
1.6179
1.38366
1.59614
1.47176
1.37731
1.35712
1.67587
1.56864
1.20558
1.30417
1.64931
1.34132
0.829857
1.43634
1.48883
1.42623
1.2025
1.49219
0.999949
1.79245
0.794518
1.44696
1.61253
1.00456
1.16536
1.34416
1.50185
1.20331
1.36059
1.67613
1.86061
1.29887
2.10146
1.40238
1.36393
1.51348
1.06124
1.85245
1.4394
1.82177
1.30064
0.985597
1.45133
1.46311
1.62871
2.04803
1.82685
1.69338
1.47872
1.15521
1.68916
1.08982
2.06675
0.884364
1.44456
1.40627
1.47963
1.39781
1.28265
1.24382
1.39724
2.00697
1.37992
1.47094
1.74785
1.48127
1.85508
1.16828
1.49403
1.35205
1.22766
1.36907
1.59449
1.26098
1.59123
0.907281
1.8919
1.43851
1.15165
1.50675
1.29418
1.74173
1.3787
1.18384
1.78859
1.28358
0.948394
1.31746
1.55787
1.17188
1.35289
2.01637
1.46704
1.01912
1.10923
1.29803
1.83483
1.39032
1.28878
1.63572
1.23898
1.18294
1.2363
0.975503
1.40441
1.87407
1.22089
1.43135
1.46741
1.40839
1.3978
1.58275
1.23885
1.41308
1.53305
1.13546
2.0473
1.2808
1.60991
1.78677
1.49613
1.19662
1.86575
0.841717
1.22327
1.14433
1.50912
1.71654
1.5038
1.78894
1.20767
1.46237
1.16352
1.83333
1.33736
2.04903
1.43466
1.48725
1.30797
1.79731
1.58964
1.06568
1.38237
1.76428
1.13509
2.13476
1.69288
1.47463
1.4769
1.50432
1.21983
1.22662
0.803991
1.27431
1.59751
1.70787
1.16808
1.5043
1.58745
0.906199
1.31254
1.28905
1.10563
1.28406
1.84636
1.17987
0.897713
1.01162
1.5314
1.35245
1.45566
1.44047
1.52171
0.818471
1.15427
1.51505
1.29888
1.34886
1.23878
1.92301
1.32331
1.34941
0.976517
1.70049
1.35699
1.65099
1.64406
1.58598
1.65778
1.21653
1.53258
1.48429
1.14457
1.73827
1.37809
0.992846
1.66372
1.30189
1.2396
1.57708
1.20532
0.822227
1.24033
1.61267
1.26014
1.5318
1.78789
1.33028
1.64585
1.45808
1.37348
1.08458
1.28576
1.35269
1.20194
1.30452
1.25226
1.60568
1.24369
1.72188
1.23755
1.51995
1.30428
1.22515
1.40582
1.00017
1.42759
1.47194
1.38041
1.04775
0.777028
1.20762
1.75582
1.29964
1.34671
1.27944
1.20464
1.17221
1.53248
1.76497
1.64417
1.1225
1.52792
1.73201
1.83361
1.39302
1.16624
1.3438
1.61562
1.27903
1.50131
1.61627
1.3331
1.54358
1.63855
0.89652
1.54554
1.12294
1.65143
2.00533
1.10039
1.33917
1.50291
0.992236
1.50346
2.0492
1.53772
1.33561
2.15847
1.79434
1.23481
1.36572
1.78644
1.14804
1.64039
1.06206
1.50634
1.36402
1.59317
1.24999
0.843431
1.54939
1.28321
1.62288
1.41057
1.26845
1.19682
1.4108
1.28161
2.27325
1.14152
1.3299
1.48098
1.24675
1.47694
1.66633
1.14022
1.48701
1.34944
1.49382
1.61471
1.41306
1.5044
1.50477
1.16049
1.16484
0.919602
1.53259
1.15483
1.69563
1.42965
1.66061
1.92643
1.46387
0.80516
1.50087
1.6549
1.65828
1.20031
1.43538
1.49846
1.96372
1.54953
1.28149
1.23009
1.42468
1.05177
1.96267
1.13765
2.0768
1.74893
1.21074
1.16592
1.62319
0.86931
1.71952
1.48013
1.68687
1.68844
1.48098
1.15546
1.82039
2.96536
1.51501
3.71107
0.381867
3.7471
0.115222
4.75839
0.285471
4.1407
0.349689
2.6367
0.917542
2.34459
1.02637
2.42286
1.58086
1.23587
3.55703
0.0125044
3.62089
0.817436
1.80316
2.37092
0.164564
3.80032
0.413857
2.87164
1.88047
2.97392
0.670834
2.5172
0.996279
1.01469
1.35492
0.458562
1.14903
2.01254
0.858225
2.47412
0.948321
2.25645
2.92742
1.24688
1.28002
0.929699
2.57797
3.97585
0.0756143
1.14039
2.19362
1.98887
2.51658
1.72731
2.53903
1.37494
2.4262
2.17242
1.07449
2.20819
1.05022
2.05419
1.85077
1.4445
1.68304
1.41967
1.26901
0.0786229
1.42272
1.31053
1.39463
1.59333
0.881078
1.38273
1.15699
1.28819
2.04128
1.12822
1.23921
0.916539
0.91064
1.11892
0.234191
1.28569
0.140833
1.6567
0.891984
1.37713
0.479883
1.11348
1.06048
0.905589
1.24736
1.10491
0.888955
0.816858
1.01453
1.04918
1.41323
0.346607
1.78585
1.10098
0.516098
1.68709
1.08721
0.652951
0.76612
1.27156
1.00765
1.50862
1.30908
0.309288
0.97067
1.14801
0.731752
1.78339
1.11083
0.857655
0.860518
0.884058
1.24451
0.725937
1.83807
0.919753
0.563097
1.77268
0.978428
0.982243
0.870702
0.330985
0.967182
1.37645
0.734487
1.06641
0.787161
0.860812
1.04059
0.660609
0.627733
1.06938
1.06595
0.930876
1.01704
0.787499
1.2826
0.188411
0.916487
1.10959
1.2128
1.47906
0.428272
1.41594
1.59454
0.637241
1.19998
1.28005
1.24609
1.17635
1.8693
0.0678609
1.14041
1.41495
0.898815
1.71427
0.392522
0.932259
0.990006
0.508978
0.28778
1.65139
0.337034
0.875449
1.1673
0.782142
0.922516
1.11486
1.14115
0.767606
1.0306
1.15998
1.27452
0.789671
1.11598
1.68444
0.917292
0.855068
0.873337
1.37793
0.958059
1.63063
0.680325
1.92053
1.14975
0.89171
1.86191
1.29643
1.28611
1.07032
1.44706
1.21139
0.887792
0.641144
1.41403
0.612006
1.31043
1.26112
0.900021
1.52771
0.543051
1.04495
0.588475
1.22695
1.62158
1.24753
1.25733
0.91079
0.290089
0.644015
0.814519
1.10844
1.36632
1.01457
1.71385
0.344345
1.93308
1.20269
1.31663
1.21196
1.26873
1.39957
1.29992
0.899828
0.101962
0.913453
0.90528
0.5775
1.05764
0.633799
1.53807
1.02789
1.34238
1.3381
1.30116
0.806711
1.23019
1.00635
1.82489
0.61409
1.21286
1.33154
1.11599
1.24724
0.584382
1.14513
1.21078
0.614382
1.42971
1.62226
1.09233
0.925967
1.41005
1.16826
0.327465
0.947601
1.48659
1.48261
1.30878
0.580306
1.29591
1.24844
0.855025
1.31087
1.51289
1.3261
1.63363
1.1051
0.492681
1.21735
1.07193
1.09852
1.28739
1.28202
0.986698
1.4751
1.34507
0.922933
1.55683
0.463914
1.51639
1.08175
0.688065
0.982553
1.54837
0.641373
2.00877
1.47935
1.57044
1.13676
0.861012
1.06871
0.72162
1.46547
1.26209
1.63664
0.692764
1.35207
0.471678
1.29393
1.47526
1.53643
0.666436
0.85517
1.65645
1.22404
0.607465
1.5782
0.27175
0.939152
1.00944
1.1874
0.882408
1.36246
1.40339
1.9501
1.37323
0.968466
0.866926
1.54498
1.04354
0.996195
1.76436
1.01429
1.18341
1.5565
1.24168
0.738168
1.58776
1.93698
1.49421
1.04506
1.14955
1.08229
1.16677
0.960745
1.96386
1.50113
1.04773
1.00373
0.932623
1.14675
0.229446
1.05692
1.24396
1.75037
0.942091
1.3422
0.793794
0.934264
0.74028
0.66818
1.53754
1.04467
1.10364
1.56893
0.766499
1.3247
1.85606
0.942875
1.31608
1.3012
1.05934
1.4355
2.01356
1.36559
0.989741
1.45164
1.07667
0.647398
1.20423
0.874744
1.04366
1.17782
1.47814
1.06538
0.990802
1.05159
1.13534
1.33028
0.922285
1.33925
0.762578
1.24378
0.99097
1.28858
1.29167
1.20156
1.68228
1.13595
0.955399
1.11405
1.63207
1.8717
1.34019
0.587895
1.19499
1.10473
1.2843
1.25499
1.61125
1.16789
0.786586
0.832071
1.42406
0.987406
0.55683
0.416688
1.19694
1.55258
1.1467
0.845679
1.10906
0.916467
0.843714
1.05738
1.13246
0.861488
1.56994
1.04723
1.54853
1.07546
0.639222
1.55202
1.2837
0.833834
1.55733
1.03472
0.263412
0.780988
0.921848
0.121729
0.687051
1.35876
1.27999
0.657071
1.51746
0.85959
1.499
0.940697
1.18947
0.870836
1.24805
1.85871
0.878923
1.22785
0.592611
1.05299
1.18954
1.4102
1.16769
1.50625
0.241938
1.58972
1.26222
0.929331
1.06804
1.07342
0.729851
1.41782
1.08614
1.00333
0.893036
1.20741
1.03448
1.34601
1.25257
1.61656
1.39089
1.68032
0.924827
1.43644
0.858519
1.24772
0.982258
0.477736
1.02316
1.80936
0.957344
0.743618
0.83832
1.31802
1.08973
1.01564
0.513148
0.934256
1.27311
1.27874
0.948123
1.63775
0.603146
1.6875
0.446894
0.73845
1.41457
1.37972
0.993474
2.03278
0.707693
1.18732
0.783234
0.858779
0.890616
1.53048
0.585828
0.266331
1.45013
0.0893064
2.78236
0.293591
2.83743
0.433456
2.009
1.49894
1.694
2.62787
1.16148
2.89882
0.812175
2.75908
0.813387
2.32895
1.60342
1.45454
2.23774
0.750318
3.04767
1.13905
3.17296
0.750503
2.19952
2.98947
5.42051
2.60168
0.418179
2.82635
2.27856
1.60752
3.32327
2.70485
3.41416
1.6905
3.10193
0.848088
2.57971
1.66216
3.80836
0.337044
0.00648474
1.90527
2.06492
4.49469
1.92321
1.67311
0.397528
1.47264
1.33399
2.28572
1.06687
0.744988
1.49168
0.865011
1.91615
0.624942
1.65124
1.12752
0.858615
1.31385
1.04233
1.46876
1.86744
2.32918
0.946614
1.07445
0.770842
0.545172
0.932884
1.01602
1.0878
1.33088
0.642764
1.02227
0.835473
1.03593
1.21435
1.33679
2.49571
0.838863
1.71147
0.120683
1.0856
0.630454
1.31804
0.898749
0.804234
1.10218
0.826009
0.898154
1.35197
1.56196
1.82265
0.859329
0.796136
2.74222
0.475662
1.03721
1.66711
0.166084
0.96719
1.26135
1.08116
0.719945
1.34303
0.694586
1.0043
1.96532
1.48951
1.22575
1.71377
0.665338
1.35438
1.52919
1.3089
1.19762
0.853347
1.29759
0.650893
1.38297
1.70288
0.476594
1.47404
1.13695
1.2308
1.4418
0.935734
0.5028
0.962064
0.107165
0.771822
0.91971
0.94057
1.65048
1.51653
1.16939
1.05414
1.10965
1.31342
1.08913
0.664064
2.00829
1.23179
0.663247
0.549662
0.712758
2.90784
0.787496
0.506964
1.89382
0.944043
0.808722
0.887329
0.962854
0.363162
2.16522
1.07167
0.594682
1.07309
0.331187
1.80922
1.32176
1.06294
1.63305
1.38639
0.363866
2.33205
1.32246
0.831095
1.37452
1.42932
1.21251
1.52519
1.55562
1.02603
1.15808
0.735155
1.16462
0.900652
0.184335
1.08309
0.985977
1.1633
0.716312
1.17297
0.396177
1.60585
0.052251
0.927666
1.05589
0.0316113
1.34288
1.06434
1.18436
0.628442
0.893844
1.14655
1.45109
0.841266
2.5734
0.928189
0.820312
1.30159
0.491428
1.53855
0.989298
1.3694
0.71813
0.0108592
0.0511027
0.481456
1.33665
1.9122
1.53975
1.2762
1.17427
0.854103
1.20909
0.391984
2.0943
0.434441
1.16502
1.05682
1.36451
1.00406
0.725455
0.796471
1.13773
2.00606
1.09277
1.13946
1.6428
1.0628
1.38242
0.268393
1.13121
0.953077
1.12468
0.957734
1.43671
0.72577
0.875629
0.0634217
1.97391
1.09512
1.11335
0.993276
0.567473
1.54323
0.779383
0.82666
1.70839
0.474351
0.235963
0.949288
1.04064
0.541238
0.904797
1.67304
1.25128
0.712954
0.693289
0.741094
1.47348
0.54441
1.41015
1.1711
0.626505
0.130872
0.483636
0.073865
0.770876
1.73348
1.09077
1.21111
1.13741
0.903439
0.994758
1.27896
0.631439
0.709801
1.50414
0.665171
2.23935
0.610226
1.0648
1.31733
1.09531
0.584097
1.63197
0.384427
0.719113
0.722412
0.991373
1.33246
1.10179
1.38345
0.667271
0.932373
0.661523
1.72355
0.915045
2.36986
1.252
2.59229
0.842924
1.59231
1.16602
0.122463
0.696602
1.68324
0.578051
2.21978
1.08042
0.910158
0.740322
1.25845
0.76503
0.913189
0.401643
0.944393
1.15952
1.25045
0.524043
1.20558
1.22809
0.398633
1.24342
0.695329
0.0691703
0.735593
1.29094
0.588729
0.200217
0.460132
0.534261
0.729154
1.06789
0.935208
1.29369
0.0323132
0.792618
1.00269
1.17894
1.13835
0.90489
1.80647
1.07402
0.845294
0.161269
0.983566
0.588199
1.27139
0.968436
1.59147
1.71051
0.464056
1.10018
1.07085
0.680782
1.46633
0.824334
0.272168
1.29775
0.948201
0.906321
1.12356
0.855082
0.211883
0.740038
0.722185
0.280284
0.625883
1.37969
0.970983
1.22328
0.940293
0.726614
0.496349
1.1553
1.34625
1.08626
1.00869
0.652189
1.18338
0.798775
1.84633
1.40809
1.13289
0.613404
0.76834
0.785182
0.108688
0.672844
0.992663
0.845016
0.412648
0.452855
0.923057
1.79276
0.920373
0.919275
0.753822
0.920894
0.261496
0.871279
1.84258
1.48384
0.559485
0.86127
1.47979
1.6664
0.645145
0.401598
0.982509
1.97438
1.04802
1.07406
1.1722
0.831496
0.631782
1.29244
0.743204
1.24944
0.625988
1.14067
2.47472
0.369502
0.15659
0.958086
0.302618
1.10908
2.10566
1.46674
1.48858
2.20429
1.5772
0.691122
0.834016
1.65686
0.495239
1.20282
0.433811
0.814413
0.503306
0.990955
0.765689
0.00035823
1.30894
0.883935
1.69952
0.98175
0.853131
0.495951
0.971927
0.681702
2.35123
0.638414
0.714899
1.06908
0.991116
0.817023
1.13731
0.434118
0.876394
0.898893
1.23159
0.577435
1.86961
1.07661
0.885873
0.191582
0.820991
0.626899
1.37609
0.743892
2.01546
1.04249
1.23589
1.9617
1.15486
0.0596512
1.06303
1.42417
1.27046
0.77692
1.07117
1.24813
2.17889
1.26957
0.739868
0.836876
1.38357
0.890813
2.09012
0.617683
1.70469
1.69423
0.744673
0.898987
1.19005
0.0365112
1.99303
1.11149
1.6425
1.26998
1.30773
0.523678
1.61951
2.56259
1.43251
2.92708
0.6478
2.72318
0.890992
2.91116
1.62148
2.45296
1.98549
1.43592
1.92181
1.37272
1.99528
1.4146
1.82797
1.30246
1.98836
1.5155
1.70603
1.81303
1.17669
1.41257
0.892781
2.26537
1.29665
1.25292
5.1511
1.44929
0.290919
2.55196
0.432291
0.468117
0.525417
1.92608
3.27157
0.601218
0.564181
2.8587
2.35296
2.95677
5.07733
1.32296
1.31551
2.35129
1.93828
2.47281
1.80559
0.713584
2.03039
2.09872
3.37854
3.66847
3.15744
2.73141
2.09851
3.68618
1.00193
1.74765
1.2485
1.25688
2.51448
1.54531
1.79715
1.67775
1.63662
1.5034
0.316167
0.883758
1.33136
1.73479
1.6209
0.68716
0.97636
0.480344
3.21996
1.42256
1.1427
0.797924
0.616209
0.883697
1.9722
1.07196
1.48136
1.6684
0.467316
0.969205
0.69768
0.731499
0.712965
0.709096
1.07977
1.27668
0.491622
0.392469
1.57444
0.707152
0.985763
2.34436
1.99589
0.767321
0.190747
1.66932
0.642896
0.378911
0.552991
0.906229
0.435415
1.44594
1.07469
1.40016
1.59277
0.555905
0.250782
2.41471
0.482276
0.0415704
1.21672
0.417703
0.904579
0.661545
2.8291
0.463872
0.0461875
1.75871
0.281402
0.683314
0.381546
0.30343
0.558175
1.07706
0.217013
0.178566
0.319503
0.422657
0.82551
0.0463167
0.95072
0.563303
0.721929
0.722805
0.0658953
0.333016
1.11535
1.28023
0.103327
1.05582
0.74217
1.33287
2.45982
0.926338
1.47277
1.37687
0.883804
1.33186
1.12094
1.02646
1.98865
1.39811
0.865941
1.97106
1.40024
2.20653
0.409001
0.24129
0.854594
0.316884
0.780149
1.38124
1.60254
0.195028
0.866302
0.214711
0.325606
1.03244
2.42204
0.420549
0.933548
0.461958
1.00627
0.531966
0.874475
1.55559
0.559679
0.734247
0.564658
1.01898
0.748438
1.60209
0.166886
1.83875
1.07643
0.823765
1.5505
2.1682
1.10225
0.66152
1.45352
1.04469
0.743728
1.14653
1.0427
2.10601
0.685084
0.825833
0.208574
1.0142
0.299787
0.890557
0.622551
1.27143
1.83166
0.297527
1.55993
0.449395
1.57213
0.314093
0.947614
0.712839
1.20643
0.976832
1.8181
1.36982
2.42274
0.879945
0.710369
2.13472
1.40032
1.0771
0.936383
0.397842
1.51201
0.364737
0.364257
1.29622
0.851448
0.767934
1.3833
0.848939
1.21022
1.7851
0.823962
0.21795
1.24006
1.0246
1.61637
1.2328
0.877615
1.98821
1.27011
1.51982
0.0232209
0.835407
0.43082
0.764172
1.09854
1.59588
0.653357
0.681804
1.20958
0.713623
0.891149
0.418468
1.1055
1.09978
1.12177
0.250986
1.19163
1.36567
0.459986
1.00823
1.31355
0.920837
1.21501
1.03972
0.0633927
0.707433
0.557816
0.627017
1.10678
0.956424
1.09774
1.38562
1.30445
0.163241
1.32269
1.63662
1.35086
0.972126
0.619432
0.915384
1.08253
0.0599893
2.06812
1.41401
1.00468
0.615909
0.157177
0.467817
0.77566
0.840899
1.03807
1.94725
0.164434
0.998332
2.1951
0.568203
3.24372
0.970043
0.291979
0.569326
1.45853
1.13422
0.49232
1.40287
2.06452
1.12528
1.30327
1.4813
0.775997
1.27757
1.05494
2.64524
0.870937
1.05124
0.858679
1.06459
0.45908
0.616166
2.178
0.0348475
0.677664
0.782682
1.28611
1.3017
1.82527
2.48313
1.44407
0.241549
0.685137
0.127013
0.845698
0.749064
2.41091
2.03931
0.897007
0.138952
0.248093
0.593182
1.22147
0.53074
0.989275
1.81196
1.36795
1.42774
0.469656
0.904561
0.0338161
0.0608406
1.44338
0.744265
0.916184
1.24815
0.89974
0.98331
2.32573
0.538544
0.927502
1.32558
0.858503
1.23221
2.21811
0.885441
0.506034
1.02467
0.426941
0.00740654
0.610331
0.983296
0.810395
1.15591
1.30848
0.522358
1.61688
0.233774
0.0485665
1.27424
0.425406
0.65226
1.45676
2.06709
0.347675
1.28261
0.734896
1.01338
1.73908
1.00001
0.470593
1.02403
1.7707
2.3975
1.14542
1.38111
0.88861
0.811756
0.605492
0.553013
1.37232
0.98665
1.5337
0.0556361
1.09918
0.898025
0.160541
0.0864222
1.32197
1.31637
0.527289
1.97016
0.518197
0.571761
0.403939
1.23156
1.20652
0.729138
1.89742
0.837308
1.38991
0.604178
2.4088
1.44367
0.189215
0.474279
1.44509
0.305635
1.6229
0.15991
0.0161442
1.67876
0.0821556
1.13191
1.08141
1.04793
1.30698
0.471718
1.20483
0.875064
1.20412
0.668529
0.951946
1.88579
0.524601
0.949457
0.170016
0.939521
0.844813
1.03047
0.736975
1.08359
1.2111
1.19332
1.03787
0.235112
0.240392
0.375544
0.544066
1.32716
0.988353
0.876612
0.254904
0.248738
2.54604
1.39963
1.19268
1.44821
0.153129
2.16627
0.471192
1.02173
1.84211
0.767865
0.769013
1.71836
0.629264
1.3764
0.75926
0.02144
1.03642
0.946108
0.619557
0.357084
1.81338
0.389047
1.02998
0.675379
0.23662
2.08254
1.20681
1.23244
0.986915
0.0866175
1.3838
1.06111
0.92349
1.93622
1.9914
1.0373
1.53038
0.805396
0.674244
1.42086
0.140648
0.479765
1.85643
0.0922034
3.32502
0.3152
3.92953
0.357506
3.37258
0.36966
2.70328
2.20921
1.79337
2.58419
1.60885
2.41766
1.72956
2.51248
1.26971
2.44858
1.64534
1.56536
2.88961
1.31897
3.55556
0.670407
2.40712
3.21866
3.14964
3.66794
0.275612
3.45989
1.27067
2.33157
3.11003
1.75245
3.77251
0.576323
3.09394
1.66199
0.0289533
0.283129
1.46571
1.08059
0.149159
3.08956
1.25539
4.61463
3.64925
2.67695
0.417504
1.04638
4.54612
4.24072
2.39291
2.32659
1.4392
3.64712
1.64295
0.485568
1.9927
3.1143
2.9017
0.85865
0.723951
1.04414
1.70516
2.19893
1.07241
0.82469
0.962691
0.734175
0.271117
1.41407
0.919095
0.709858
3.48436
1.39803
0.366075
1.08114
0.726353
0.867823
1.23398
0.666413
1.39747
1.13783
1.24385
0.965273
1.91176
0.59347
0.832046
0.745322
1.01396
1.40567
1.51125
1.36462
1.41351
0.698188
0.246619
1.00894
1.40541
0.904505
1.90875
0.700817
0.784808
1.16042
0.848611
0.76637
1.46198
1.58792
0.640349
1.12196
1.25707
1.24775
1.40069
1.81716
1.33902
1.5024
1.36839
0.940235
1.42117
0.179076
2.45272
1.19918
1.66654
0.0796656
0.901055
0.852875
0.62664
0.200571
0.576379
0.595859
0.998234
0.348886
0.769471
0.860574
0.286822
1.6997
2.84908
1.06165
0.271159
0.177013
1.20998
0.5245
1.19521
1.20459
1.2626
0.0972527
0.378315
0.642233
0.633072
0.181749
0.201382
1.66306
0.905072
1.52294
0.414623
0.456183
0.618648
1.24615
1.08075
2.0245
0.462063
1.68326
2.17195
0.927063
0.881191
2.19011
1.23741
0.41554
1.47715
0.934735
0.497105
1.44508
1.55555
0.687645
2.93237
1.2966
0.677312
1.86886
0.781934
0.884503
0.509351
0.717677
0.504184
0.093444
0.52887
0.601478
0.875296
0.963702
1.86159
0.767388
0.144446
0.517672
0.309059
1.9481
0.531425
0.947897
0.84106
0.374279
0.745596
2.03809
0.573694
1.30448
0.900434
0.912372
1.25907
0.407827
2.21219
0.965647
1.85185
0.451066
1.24665
0.015882
1.57242
1.77098
1.13331
1.27409
2.09236
1.47889
0.854509
1.86771
0.228823
1.73205
2.14525
0.59573
0.571132
2.73048
1.03677
0.683137
0.644915
0.875962
1.18549
1.26245
0.99643
1.33307
1.02537
1.98053
0.937894
0.700006
0.991229
1.16859
0.761106
1.40465
0.261841
0.277112
1.06716
1.49954
0.682505
1.26467
0.0770198
0.197438
1.9238
0.310217
0.457659
1.49409
0.0406985
1.17393
0.734447
0.80277
0.35978
0.863166
1.74291
1.29427
0.806564
0.511718
0.515222
1.40235
0.171582
1.02787
1.06389
0.515336
0.0166464
1.28841
0.21215
0.554385
2.07377
1.50404
1.25322
1.09059
1.16069
0.796812
0.940631
0.0618993
0.475178
1.85354
1.25099
1.38644
0.295887
1.47091
1.01509
0.876625
1.03495
1.33894
0.216778
1.39466
1.29027
0.898644
0.816301
0.845462
1.07158
0.313551
0.238986
1.36817
1.59096
0.730948
1.11561
0.963443
0.307579
0.716411
1.5728
0.711242
1.20752
0.626414
2.88606
0.0894426
0.693964
2.05406
0.494635
1.31535
1.20369
1.09087
0.788499
2.23897
0.936442
1.27948
1.11153
0.310829
1.58131
1.01249
1.88233
0.929417
0.384515
0.0694026
0.345268
2.92041
0.150073
2.27834
1.15437
0.402156
0.690251
0.594441
0.529885
0.771878
1.69633
1.83906
0.305876
0.448603
0.881761
0.75979
1.09638
1.12617
0.575973
1.00321
2.08471
0.297049
1.03588
0.629499
1.64488
1.87227
1.03027
0.932979
0.918529
0.579164
1.11172
0.479449
1.90724
1.00761
0.508367
0.441464
0.31907
0.471911
1.49925
0.618408
0.808746
0.364807
0.0203221
1.07367
0.740426
1.04451
0.0362895
0.203464
0.348434
1.06867
1.53922
0.0338003
0.553518
0.981511
1.05555
1.01298
1.29977
0.528101
1.5207
0.345819
0.735369
0.0335293
1.09666
0.258749
0.838661
0.187743
1.07456
1.68793
0.397999
1.26686
0.670166
1.22524
0.918932
1.1829
0.154571
0.677732
1.47773
1.61031
0.354622
0.523021
1.36895
1.79275
0.451582
0.502847
0.935596
0.744065
0.879359
1.09338
1.16677
0.0580062
0.377179
0.254555
0.522568
0.932847
0.837044
1.31941
0.58223
1.2722
0.318308
0.818604
0.146186
1.45387
1.33486
1.80201
2.07069
1.46019
1.71221
0.659845
0.413089
0.944925
0.00406561
1.05422
0.287498
0.155082
0.127975
0.810044
0.621954
0.808397
1.11733
0.821249
1.89091
0.422923
0.876907
0.341749
0.745741
0.390639
2.65752
0.499469
0.567829
0.768829
0.44201
0.604864
0.791524
0.206655
1.41732
0.287781
1.09335
0.09902
2.91111
0.260385
1.22408
0.311422
0.391141
1.69395
1.44877
0.886554
1.29775
1.25925
1.97489