/*--------------------------------*- C++ -*----------------------------------*\
| =========                 |                                                 |
| \\      /  F ield         | OpenFOAM: The Open Source CFD Toolbox           |
|  \\    /   O peration     | Version:  v2012                                 |
|   \\  /    A nd           | Website:  www.openfoam.com                      |
|    \\/     M anipulation  |                                                 |
\*---------------------------------------------------------------------------*/
FoamFile
{
    version     2.0;
    format      ascii;
    class       volScalarField;
    location    "250";
    object      aU;
}
// * * * * * * * * * * * * * * * * * * * * * * * * * * * * * * * * * * * * * //

dimensions      [0 0 0 0 0 0 0];


internalField   nonuniform List<scalar> 
65536
(
0.000916896
0.00218573
0.00202345
0.00189448
0.00260059
0.00171693
0.00299022
0.00139415
0.00191795
0.00198695
0.00207804
0.00235769
0.00234937
0.00331121
0.00167714
0.00192486
0.00185033
0.00189813
0.00220897
0.00164403
0.000697442
0.00071806
0.0014615
0.00203807
0.00252781
0.00309326
0.000655541
0.00129964
0.00324348
0.00210954
0.00359524
0.00332778
0.00189269
0.00202305
0.00246217
0.00269184
0.00305886
0.00270307
0.00362253
0.00269631
0.00380485
0.00297307
0.00242078
0.00290733
0.00387997
0.00597861
0.00442332
0.00309671
0.0019794
0.00329212
0.00541396
0.00565995
0.0047258
0.00341314
0.00196985
0.00369337
0.00412332
0.00155
0.00256295
0.00487022
0.00395609
0.00173315
0.0034186
0.00448884
0.00149445
0.00163021
0.00300676
0.0018251
0.0016844
0.00301159
0.00141721
0.0012788
0.000907482
0.000474646
0.000844036
0.000383426
0.00163546
0.000683366
0.00018819
0.000586051
0.000428976
0.000468175
0.000397366
0.000504722
0.00042797
0.000801778
0.000386036
0.000161138
0.00048121
0.000603974
0.000160958
0.000616482
0.000428116
0.00054172
0.000771242
0.000640522
0.000586985
0.000588676
0.000648041
0.000385316
0.000295322
0.000652592
0.000319574
9.75018e-05
0.000215604
0.000386595
0.000509799
0.000601289
0.000231349
0.000253115
0.000414836
0.000152525
0.000551346
0.000660996
0.000966944
0.000807325
0.000825399
0.000524285
0.000763217
0.000606144
0.000406862
0.000209963
0.000585859
0.000928134
0.000828029
0.000554026
0.000327124
0.000232817
0.000405389
0.000970705
0.00122157
0.000730021
0.000306907
0.000126649
0.00012509
0.00029953
0.000430218
0.000655157
0.000172152
0.000696083
0.000274599
0.000214389
0.000155108
0.000408694
0.000791825
0.000286152
0.000578675
0.000479715
0.000198227
0.000384381
0.000582519
0.000612028
0.000532898
0.000677796
0.000568364
0.00045268
0.00020102
7.33477e-05
7.42982e-05
0.000442943
0.000791856
0.000536624
0.000588326
0.00112273
0.000671326
0.000576796
0.000394574
0.000346775
0.000303614
0.000445562
0.000743656
0.000352991
0.000152327
0.000421074
0.00070233
0.000657604
0.000788369
0.000844925
0.000465461
0.000580909
0.00051043
0.000414972
0.000678239
0.000331014
0.000197205
0.00100931
0.000939567
0.000704566
0.000551073
0.000717652
0.000391203
0.000742576
0.000125933
0.000520081
0.000208676
0.000134144
0.000759226
0.000781323
0.000837325
0.000534173
0.000584769
0.000326922
0.000273338
0.000648962
0.000942459
0.000956702
0.000701147
0.000574234
0.000634492
0.000386958
4.74113e-05
0.000193263
0.000347506
0.000572321
0.000763376
0.000736065
0.000584634
0.000664349
0.000576589
0.000698821
0.000524118
0.000154402
0.000334366
0.000232356
0.000430137
0.00043082
0.000817618
0.000456327
0.000252498
0.000251511
0.00013888
0.000527859
0.000915644
0.000954274
0.000673839
0.000501247
0.000254559
0.000693668
0.000492449
0.000512202
0.000314384
0.00104496
0.000306344
0.000733146
0.000793294
0.000889059
0.000889556
0.000338986
0.000638353
0.000458756
0.000654835
0.000944335
0.000439584
0.000845072
0.000540487
0.000784872
0.000654211
0.000437283
0.000127658
0.000585377
0.00048176
0.000905701
0.000419084
0.000752107
0.000190011
0.000366315
0.00010856
0.000325379
0.000271107
0.000588811
0.0003119
0.000823177
0.000730171
0.000456621
0.000186483
0.000222952
0.000151075
0.000516857
0.000579019
0.000396382
0.000542333
0.000211741
0.000498948
0.000677397
0.000590149
0.000654386
0.000609002
0.000630138
0.000718307
0.000118972
0.000325347
0.000449405
0.000615088
0.000483074
0.00036466
0.000459644
0.000515243
0.000225481
0.000701609
0.000497369
0.000216765
0.000202325
0.000332414
0.000443929
0.000594255
0.000585761
0.000446655
0.000317453
0.000270078
0.000141174
0.000371131
0.000574754
0.000990886
0.000272242
0.000534435
0.000299016
0.000633955
0.000111391
0.000449574
0.000638485
0.000636043
0.000557538
0.000391651
0.000463593
0.000291823
0.000332755
0.000397176
0.000663648
0.000267809
0.000729119
0.00106285
0.000454328
0.000343814
0.000568487
0.000329851
0.000387527
0.000312313
0.000478968
0.000329619
0.000611161
0.000539791
0.000829292
0.000432647
0.000105508
0.000513226
0.000819037
0.000451508
0.000723865
0.000204231
0.000298564
0.000498838
0.000632425
0.000382124
0.000147889
0.000102765
0.000290542
0.000505921
0.000707631
0.000769278
0.000472771
0.000233231
0.000152866
6.28512e-05
5.56355e-05
0.000262417
0.000273091
0.000363219
0.000237952
0.000384979
0.000422418
0.000414282
0.000456166
0.000482432
0.000581472
0.000260678
0.000195754
9.21271e-05
0.000289284
0.000396545
0.000670341
0.000639445
0.000753809
0.000249134
0.000776694
0.000741521
0.000587372
0.000306428
0.000703907
0.000550117
0.000465323
0.000485118
0.000481774
0.000486398
0.000388622
0.000210435
0.000188591
0.000287089
0.000261404
0.000528186
0.000120677
0.000502803
9.41771e-05
0.000653498
0.000522318
0.000912976
0.000507971
0.00030637
0.000218525
0.000397371
0.000346486
0.000237147
0.000214255
0.000347172
0.000422292
0.000562028
0.000872506
0.00036423
0.000508314
0.000414895
0.000498082
0.000451507
0.000105177
0.000477397
0.000605824
0.0004554
0.000648981
0.000603864
0.000731519
0.000677268
0.000522343
0.000728041
0.000873393
0.000989812
0.000307508
0.000878399
0.000256485
0.000252386
0.000324926
0.000441154
0.000615947
0.000186661
0.000765998
0.000609183
0.000270821
0.000320332
0.00013737
0.000630576
0.000410476
0.000683899
0.000143693
0.000531332
0.000752579
0.000754429
0.00118495
0.000522966
0.000294116
0.000424957
0.000630167
0.000877057
0.000500667
0.000126229
0.000261987
0.000491463
0.000510091
0.000238834
0.000634059
0.000455785
0.000314826
0.000171405
0.000490441
0.000513632
0.000613
0.000245922
0.000338626
0.000428998
0.000390744
0.000258053
0.000379061
0.000369695
0.000223276
0.000592521
0.000917638
0.000657813
0.000718058
0.000795067
0.000497256
0.000149292
0.000220659
0.000657776
0.000886663
0.000179062
0.000403879
0.000831195
0.000445444
0.000277785
0.000252805
0.000553721
0.000575385
0.000614271
0.000415841
0.000568592
0.000581691
0.000819494
0.000842393
0.00055064
0.000339964
0.000628861
0.000383184
0.000480427
0.000367042
0.000208149
0.000308864
0.00173818
0.000641337
0.00051342
0.00120471
0.00060905
0.00151775
0.000714077
0.00165323
0.000864969
0.00180208
0.00157663
0.00109463
0.00107592
0.00103607
0.00187661
0.00151201
0.000942643
0.00179562
0.000781881
0.0029473
0.00117633
0.00170457
0.00192511
0.00135245
0.000756055
0.00210311
0.0025991
0.00171015
0.00169156
0.00225272
0.000796527
0.00136968
0.00329751
0.00355825
0.000681812
0.00193005
0.00113021
0.00318125
0.00257694
0.00170845
0.000455272
0.00144129
0.00286505
0.00233938
0.00112506
0.000491676
0.0022113
0.000845649
0.0027074
0.00304613
0.0013267
0.00031429
0.00210397
0.00416035
0.00209889
0.00117941
0.00105428
0.00148341
0.00212714
0.00102752
0.00201514
0.000275652
0.00201558
0.00143031
0.00218997
0.00197
0.000710538
0.0009151
0.000865394
0.000223783
0.00105296
0.000125985
0.000612343
0.000220614
0.000366955
0.000534666
0.000242454
0.00107128
0.000358308
5.67989e-05
0.000605237
0.000421805
8.99382e-05
0.000532785
0.000250675
0.000300553
0.000544008
0.000439249
0.000441317
0.00035389
9.15773e-05
0.000307685
0.000745399
0.000588378
0.000160443
0.000832267
0.00051577
0.000618641
0.000397347
0.000429208
0.000198146
7.33537e-05
0.00037736
0.000215234
0.000132951
0.000319457
0.00062499
8.62779e-05
0.000419495
0.00017723
0.00028496
0.000234436
0.000178653
0.000871229
0.000567584
0.000721855
0.00044934
0.000923046
0.00057361
0.000585313
0.000152117
0.000293441
0.000361328
0.0008805
0.000750127
0.000821401
0.000671
0.000174249
0.000472401
0.000654843
0.000626463
0.000722212
0.000436567
9.62308e-05
0.000232516
0.000292819
0.000818998
0.000162241
0.000394801
0.000236105
0.000430572
0.000116022
0.000336476
0.00044344
0.000275815
0.000403224
0.000215152
0.000255939
0.000459551
0.000471676
0.000711703
0.000649463
0.000713287
0.000293064
0.000786496
0.000481309
0.00084458
0.000246868
0.00017796
0.000460223
0.000326372
0.000595652
0.000375017
8.35202e-05
0.000929841
0.000819588
0.000865586
0.000546848
0.000697969
0.000874202
0.000377316
0.000397221
0.000201244
0.00063049
0.000197704
0.000415133
0.000515647
0.000226138
0.00135831
0.000640992
0.000651939
0.000760396
0.000212598
0.000546199
0.000556067
0.000457575
0.000632146
0.000310067
0.000626559
0.000360008
0.00119869
0.000303042
0.000707034
0.00026623
0.000688843
0.00050712
0.000286467
0.00115557
0.000335207
0.000881302
0.000239272
0.000381772
0.000157037
0.000442349
0.000913409
0.000540069
0.000732227
0.000536384
0.000289832
0.000700734
0.000794136
0.000430041
0.000456118
0.000424945
0.000665973
0.00101368
0.000894587
0.000234778
0.000625164
0.000541903
0.000505693
0.000602969
0.000151247
0.000271855
0.000195047
0.00130697
0.000100124
0.000742079
0.000785175
0.000318956
0.000372679
0.000521251
0.000822204
0.000658764
0.00083664
0.000500662
0.000230355
0.000186493
0.000614587
0.000219062
0.00115471
0.000702743
0.000492585
0.000763776
0.000824058
0.00119219
0.000749527
0.00129564
7.52649e-05
0.0006002
0.000669186
0.000229441
0.000940382
0.000282107
0.00131758
0.000181509
0.000636869
0.00054735
0.000887076
0.000201012
0.000958431
0.000760772
0.000686559
0.000262634
0.000976674
0.000104608
0.000435187
0.000886793
0.000687193
3.72748e-05
0.000799883
0.00021841
0.000710254
0.00048276
0.000444636
0.000763316
0.00050285
0.00010178
0.000808999
0.00107062
0.000795329
0.000564291
0.00038957
0.000494683
0.000670901
0.000308003
0.000775547
0.0011791
0.000719434
0.00111053
0.000481022
0.000899307
0.000833831
0.00013699
0.000496996
0.000650652
3.63069e-05
0.000175526
0.00021468
0.000241936
0.000693803
0.000442689
0.000641798
0.000380229
0.000566907
0.000636223
0.00031863
0.000382865
0.000107772
0.000147691
0.000146232
0.00100295
0.000643313
0.00137368
0.00057071
0.000274144
0.000336132
0.00106226
0.000762085
0.00113194
0.000713532
0.000686018
0.000450887
0.000937553
0.000964841
0.000258821
0.000547069
0.000348874
0.0011568
0.000938789
0.000605674
0.000977999
0.000888447
0.000215623
0.00012095
0.000472128
0.0010722
0.000576115
0.000564694
0.000675295
0.000777176
0.000125679
0.000640737
0.000890256
0.000959072
0.000594001
0.00167764
0.000128227
0.000521092
0.000362549
0.000256843
0.000323273
0.000414154
0.000402683
0.000461242
0.000490489
0.000792838
0.001197
0.00022834
5.31318e-05
0.000585063
0.000651508
0.000276653
0.000643077
0.000146688
0.000194455
0.000510244
0.000527272
3.2989e-05
0.000595748
0.000692902
0.000945272
0.00105984
0.000498105
0.00016734
0.000180744
0.000147653
0.000157224
0.000792595
0.000124997
0.000954379
0.000228212
0.000632809
0.00060894
0.000620715
0.000231306
0.000805008
0.000398052
0.000247288
0.000462246
0.000534797
0.00109994
0.00126996
0.000559441
0.000198048
0.00061797
0.000386149
0.000279686
0.000130648
0.000869886
0.000219633
0.000315676
0.000610741
0.000887752
0.000127488
0.000865217
0.00083221
0.000503448
0.000315864
0.000409109
0.000991808
0.000780501
0.000611695
0.00026618
0.000733225
0.000699963
0.000769669
0.000263063
0.000383025
0.000163573
5.93287e-05
0.000754511
0.000372478
0.000296909
0.000151089
0.000659702
0.000708218
0.000590088
0.000813528
0.000307619
0.000305041
0.000333215
0.000588112
0.000645951
0.00108322
0.000888801
0.000260827
0.000692527
0.000909774
0.000200862
0.000868927
8.38945e-05
0.000542245
0.00030884
6.33171e-05
0.000192828
8.96744e-05
0.000675918
0.000566385
0.000275922
0.00036524
0.000486935
0.000956316
0.000482356
0.000346062
0.000189601
0.00036015
0.000859568
0.000495139
0.000545911
0.000366191
0.000248217
0.000890744
0.000933031
0.000612246
0.000407157
0.000868965
7.66896e-05
0.000271591
0.000209354
0.000884132
0.000815295
0.000536321
0.000713387
0.000887209
0.000254159
0.000136373
0.000120313
0.00112332
0.000761735
0.000715969
0.00108872
0.00100103
0.00119343
0.000793293
0.000465778
0.000592568
0.000547042
0.000795857
0.000565409
0.000963816
0.000971057
0.000471835
0.000793314
0.000578585
0.000674066
0.000270598
0.000738178
0.000362016
0.000783309
0.000502566
0.000964215
0.00125602
0.000741436
0.00104434
0.000573892
0.000601917
0.000810663
0.000209393
0.000394812
0.000837708
0.000689772
0.000560559
0.000377156
0.000647157
0.00155997
0.00133856
0.00177228
0.00130713
0.00188501
0.00230714
0.00204465
0.00204369
0.00127429
0.00196963
0.00115499
0.000784956
0.00276696
0.0043398
0.00135582
0.00267264
0.00222399
0.00348854
0.00539024
0.00181014
0.000668842
0.00143768
0.00306148
0.00556607
0.00308438
0.00271955
0.00334867
0.00336292
0.00235049
0.0050497
0.00494082
0.00521839
0.00107558
0.00410197
0.00215953
0.00122176
0.00253583
0.00196684
0.00293292
0.00246659
0.002146
0.00132712
0.000695549
0.00187982
0.00306686
0.00275492
0.00249555
0.00202356
0.000518693
0.00250936
0.00193421
0.00324065
0.000334743
0.00074782
0.00251534
0.00158036
0.000268127
0.00125157
0.0019079
0.00156405
0.00014059
0.00202484
0.00136625
0.00110311
0.000895728
0.000710798
0.000849812
0.000840895
0.000491602
0.000694768
0.000270968
0.000290838
0.000573836
0.000445961
0.000690278
0.000424144
0.000469035
0.000557226
0.000241242
0.000338409
0.000290513
0.000423194
0.000106078
0.000325486
0.000502288
0.000292541
0.000414888
0.000213507
0.00025718
0.000616199
0.000619677
0.000144884
0.000513291
0.000836132
0.00028073
0.000610618
0.000396274
0.000330283
0.000236691
0.000152056
0.000286801
7.06349e-05
0.000369176
0.000478746
0.000355733
0.000364592
0.000324572
0.000228749
0.000202215
0.000572603
0.000505601
0.000697953
0.000909585
0.00080313
0.00109741
0.000905594
0.000754356
0.000393613
0.000314779
0.000519989
0.000764665
0.00109976
0.00113868
0.000730704
0.000267151
0.00034677
0.000704181
0.000447828
0.000443809
0.000319871
0.000129818
0.000351625
0.000340553
0.000492213
0.000918314
0.000407937
0.000497982
0.000221652
0.000340822
0.000224787
0.000430297
0.000206428
0.000459478
0.000502947
6.4903e-05
0.000634466
0.000550136
0.000750577
0.000536425
0.000903151
0.000776541
0.000517942
0.000404617
0.00120237
0.00085514
0.000557213
0.000533966
0.000674637
0.000764117
0.000344696
0.000468105
0.00085093
0.000685083
0.00119164
0.00119664
0.000819972
0.000692956
0.000532195
0.000495139
0.000412564
0.000955836
0.00060165
0.000841733
0.000109315
0.00114043
0.000602091
0.00149848
0.000816377
0.000247739
0.000692715
0.000460577
0.000502802
0.000381067
0.000711103
0.000559259
0.00042855
0.000424375
0.00119978
0.000602865
0.000851604
0.00109594
0.00109523
0.00099305
0.000709692
0.000716436
0.00114197
0.000584253
0.000496247
0.000345755
0.00033173
0.00055873
0.000799642
0.000629229
0.000343355
0.000389426
0.000700863
0.00114583
0.000378253
0.000591365
0.00061115
0.000513243
0.000528418
0.00063336
0.00125205
0.000817798
0.000251538
0.000250373
0.000800737
0.000211462
0.000341474
0.000518424
0.00100514
0.000636869
0.00129469
0.000738266
0.000840872
0.00091898
6.30835e-05
0.000816961
0.000321664
0.00084004
0.000881472
0.000787736
0.000631668
0.000604813
0.000286058
0.000774452
0.00128689
0.0016626
0.00139481
0.00070364
0.000877747
0.00143674
0.00165104
0.00118279
0.00123859
0.000582214
0.000623693
0.000930422
0.000806175
0.00147646
0.000760231
0.0010236
0.000408408
0.000742183
0.00102405
0.0012584
0.00119117
0.00109374
0.000821863
0.00108664
0.00078346
0.000930008
0.000747122
0.000950251
0.000786738
0.000943319
0.000312511
0.000844069
0.00046421
0.000609196
0.00104612
0.000636189
0.000633139
0.000778805
0.000797468
0.00138339
0.00124365
0.00075192
0.000599645
0.000233118
0.000243255
0.000746644
0.00109816
0.00108879
0.00166739
0.00103494
0.000290616
0.00115731
0.000891804
0.000972514
0.000507593
0.000649556
0.000484616
7.95023e-05
0.000204335
0.000243612
0.000291166
0.000487457
0.00106542
0.000464238
0.000845301
0.000226206
0.000555601
0.000159455
0.000295654
0.000164293
0.000700858
0.00118466
0.00114863
0.00106844
0.00117026
0.000466712
0.000896325
0.00115214
0.00180787
0.00141528
0.000723624
0.000805002
0.0012802
0.00120477
0.00105407
0.00108826
0.000617551
0.000318713
0.00034461
0.00170947
0.000961031
0.000970405
0.000486047
0.000537837
0.000155229
0.000991907
0.0010241
0.000778391
0.0011001
0.000754263
0.000784422
0.000802062
0.000616963
0.000648289
0.00100936
0.001799
0.00127504
0.00109353
0.00059707
9.13385e-05
0.000321808
0.00034982
0.000431477
0.000637303
0.000404672
0.000456569
0.00131381
0.00113378
0.000745499
0.000377844
0.000439635
0.000869933
0.000150993
0.000469094
0.000570421
0.000344197
0.000500832
0.000407419
0.000686919
0.000416076
0.000605777
0.00140898
0.00100724
0.000955331
0.000104484
0.000276373
0.00025746
0.000936023
0.000574153
0.000360965
0.00060846
0.000884416
0.000380168
0.000620623
0.000602223
0.0010158
0.000966876
0.00106995
0.000318688
4.83213e-05
0.000992432
0.00125533
0.0011475
0.00108524
0.000415469
0.000800486
0.000639507
0.000312361
0.000802423
0.000897945
0.00088017
0.000594631
0.00128641
0.00112673
0.00101038
0.000950304
0.000888816
0.00050922
0.000650573
0.000840859
0.00106202
0.000741936
0.000839647
0.000670241
0.000798841
0.000835057
0.0009245
0.000432382
0.00021276
0.000455608
0.000382469
0.000180793
0.00035087
0.000745931
0.000716364
0.000469608
0.000488295
0.000700156
0.000528811
0.000890019
7.86464e-05
0.00056244
0.000706303
0.00133437
0.00164875
0.00125541
0.00111042
0.000991519
0.00112702
0.000265217
0.000477429
0.000612801
0.000423507
0.000368227
0.000202787
0.000264657
0.00048835
0.000609155
0.000647136
0.000500835
0.000197055
0.000902999
0.000835909
0.000434699
0.000225204
0.000386809
0.000221075
0.000594371
0.000884376
0.000628174
0.000798593
0.000917264
0.00100579
0.00115138
0.00117809
0.000288953
0.000733703
0.000741455
0.000458989
0.000195969
0.000938241
0.000697972
0.00122474
0.0009022
0.000618817
0.000748348
0.000106095
0.000706534
0.00132991
0.000675235
0.000654392
0.00208142
0.00185613
0.00135633
0.000539914
0.00104029
0.000807533
0.000221979
0.000658354
0.000574505
0.00087427
0.00151668
0.000914279
0.000855416
0.000395508
0.000381626
0.000101156
0.000693805
0.00103945
0.000697097
0.000390382
0.001471
0.000980489
0.000732362
0.000580439
0.00130336
0.000589152
0.00090432
0.000557263
0.000504461
0.00157609
0.00191435
0.00107915
0.0017899
0.001955
0.000296709
0.000863241
0.00103627
0.00293815
0.0021155
0.00231816
0.00204598
0.00118378
0.0032219
0.000859148
0.00114075
0.00236538
0.00206581
0.00225808
0.00348724
0.00318894
0.00205372
0.00325265
0.00464693
0.00431881
0.000621889
0.00330016
0.00406894
0.00435856
0.00471622
0.00342699
0.0034265
0.00393206
0.00405735
0.00287812
0.00296642
0.00600428
0.0041598
0.00430781
0.000758444
0.00210091
0.00185806
0.00349392
0.00278613
0.000596115
0.00318944
0.00531159
0.00393105
0.00311487
0.00224313
0.00248357
0.00278648
0.00267374
0.00224282
0.00140257
0.00216401
0.00294694
0.00156281
0.00192615
0.00218029
0.00106984
0.000423276
0.00139468
0.0028816
0.000211394
0.000625036
0.00125226
0.00120816
0.0014101
0.000362757
0.000469355
0.000877241
0.000599604
0.000604181
0.000602877
0.000438023
0.00016914
0.000413667
0.000607357
0.000351709
0.000659037
0.000472975
0.000497256
0.000333269
0.000502586
0.00036169
0.000687346
0.000148259
0.000240202
0.000487872
0.000251386
0.000450945
0.000257858
0.00042194
0.000261901
0.000362995
8.20482e-05
0.000330429
0.000682882
0.000739814
0.000566066
0.000258764
0.000510787
0.000216421
0.000232488
0.000353104
9.71722e-05
0.000345024
0.000212064
0.000304843
0.000505824
0.000651583
0.000166075
0.000134962
0.000481944
0.000225099
0.000942118
0.000396749
0.00144913
0.000627158
0.00139698
0.000341105
0.00099107
0.000269359
0.000534974
0.000632636
0.00133046
0.0012073
0.00109596
0.000570874
0.000161192
0.000417576
0.000682867
0.000136911
0.000216896
0.000357868
0.000371947
0.00022529
0.000107669
0.00114443
0.000420131
0.000681051
0.000151152
0.000416165
0.00020915
0.000405955
0.000471516
0.00056321
0.000498629
0.000734237
0.00094313
0.000464774
0.00115627
0.000568755
0.000614217
0.000866105
0.000674688
0.0012457
0.000899067
0.00189014
0.00104851
0.00130252
0.000821775
0.000931978
0.000449474
0.000807416
0.000637453
0.000379151
0.00171672
0.00157417
0.000818322
0.000432828
0.000454488
0.000436686
0.000392301
0.00122595
0.00124001
0.000584312
0.00040209
0.00068039
0.000493865
0.00129994
0.000620439
0.000277107
0.000326299
0.000547219
0.000425782
0.000225192
0.000678802
0.000697068
0.000873677
0.000586379
0.000826222
0.000584391
0.000770394
0.00203094
0.000786092
0.00194812
0.000588141
0.000764078
0.00108604
0.000298832
0.00113623
0.000515414
0.000776049
0.000653013
0.000232041
0.000696319
0.000242584
0.000104761
0.00104467
0.000686069
0.00143018
0.000481595
0.000265676
0.000398512
0.000764946
0.00178534
0.000700809
0.00133718
0.000818619
0.000580933
0.000907304
0.000165123
0.000315464
0.000377725
0.00125426
0.000369182
0.00120376
0.0011153
0.000555266
0.00114375
0.00093637
0.00121998
0.000835161
0.00042306
0.000849748
0.00100356
0.00134359
0.000712293
0.000842235
0.000980306
0.00203428
0.00177959
0.00218525
0.00111152
0.00103005
0.00117295
0.00229824
0.000563995
0.00171002
0.000656221
0.000505538
0.00126622
0.000547486
0.00163282
0.0012715
0.000878042
0.000922862
0.00167713
0.000862044
0.00175941
0.00226859
0.00113464
0.000887115
0.00133625
0.000483462
0.000680189
0.00115965
0.000481233
0.00141687
0.000540954
0.000967456
0.000767263
0.00095456
0.000593813
0.00145539
0.000232326
0.00104556
0.000691138
0.000989715
0.00132637
0.00151797
0.000627751
0.000683599
0.00031653
0.000341543
0.000704769
0.000661586
0.00135974
0.00143856
0.00111178
0.000272617
0.00100241
0.000757468
0.00117997
0.000545186
0.000319522
0.000763082
8.21444e-05
0.000344602
0.000441563
0.000681925
0.000920527
0.00119795
0.000535892
0.000581045
0.00112114
0.000872322
0.00044559
0.000175815
0.000831301
0.00103291
0.00260697
0.00111164
0.00144846
0.00139972
0.000438419
0.00152185
0.000663787
0.00287249
0.000785707
0.00105637
0.000585222
0.00174182
0.00109549
0.000960847
0.00163316
0.000672447
0.000623326
0.00065711
0.00155569
0.00127694
0.000585223
0.000619483
0.000672104
0.000184652
0.00142034
0.00072573
0.0012004
0.00141673
0.000641494
0.00107833
0.0010563
0.000518544
0.000317716
0.00110692
0.0018388
0.000644517
0.00139482
0.000622643
0.00034796
0.000291599
0.000501938
9.63081e-05
0.000892903
0.000500618
0.000401076
0.0016359
0.0013556
0.000884668
0.00030813
0.000593881
0.000694784
0.000225506
0.000279597
0.000604102
0.000284135
0.000345226
0.000309061
0.000808118
0.000247462
0.000654165
0.00146396
0.00102946
0.00109018
0.000288233
0.000370316
0.00093775
0.00081182
0.00150275
0.000708189
0.00119743
0.000578506
0.000843773
0.000292448
0.000879825
0.00119037
0.00204733
0.0011206
0.00120816
0.000526914
0.000909829
0.000994502
0.000449835
0.00148936
0.00130225
0.000476511
0.00109505
0.000138247
0.00124224
0.000755671
0.00140149
0.00145814
0.00101189
0.00299453
0.00103136
0.00220806
0.000938603
0.0011103
0.000278954
0.00138512
0.000902004
0.000714669
0.000952668
0.00102027
0.0011071
0.00058267
0.00124936
0.00022964
0.00067614
0.000654848
0.000722076
0.000733728
0.00107256
0.00064853
0.0010925
0.000755143
0.000562728
0.000707147
8.35832e-05
0.000827357
0.000400337
0.00060726
0.0020211
0.00180003
0.00110198
0.00289625
0.00140238
0.000792664
0.00080032
0.000536721
0.000745284
0.000635349
0.00116604
0.000500883
0.000376285
0.000584515
0.000567214
0.000316243
0.000350974
0.000877272
0.000291485
0.000621986
0.00117668
0.000945785
0.00040843
0.00028657
8.46166e-05
0.000336078
0.00154747
0.00137322
0.0013049
0.00180526
0.000572111
0.00175067
0.00118754
0.000254653
0.000316006
0.00110552
0.000576111
0.000729304
0.00150667
0.00079618
0.00170865
0.000702941
0.000777223
0.000467343
0.000106207
0.00112647
0.00109819
0.00149386
0.0018859
0.00107398
0.00346885
0.000842316
0.000338852
0.000825475
0.0011143
0.000284236
0.000425446
0.000697816
0.000668815
0.00198939
0.00134918
0.000837653
0.000784539
0.000734619
0.00093734
0.000765416
0.00170073
0.000445285
0.000385169
0.00121233
0.00106112
0.000561343
0.000141815
0.00169281
0.000639933
0.00110386
0.000616386
0.00194022
0.00190702
0.00318698
0.000594437
0.00196351
0.000647429
0.00172016
0.00137866
0.00322297
7.68488e-05
0.00355602
0.00117905
0.00140275
0.00170833
0.000351966
0.000771859
0.00152463
0.00127579
0.00151074
0.00231542
0.000767951
0.00209305
0.00133821
0.00334574
0.00211182
0.00533747
0.00302544
0.00305858
0.00287199
0.00236297
0.00389035
0.00274525
0.00343621
0.000508665
0.00348139
0.00310917
0.00255008
0.00364401
0.00416083
0.00632143
0.00712723
0.00163332
0.00417905
0.00267666
0.00377176
0.00182294
0.00342203
0.00504411
0.00535449
0.00449647
0.00206561
0.00206992
0.00268862
0.00264012
0.00108417
0.00143875
0.00177006
0.00392944
0.000985897
0.00132079
0.00161357
0.00172719
0.00110937
0.00126955
0.00181425
0.00152674
0.00113401
0.00101072
0.00166889
0.00175537
0.000387528
0.000357309
0.000708988
0.000682391
0.00071222
0.000463754
0.000684658
0.000376267
0.000679652
0.000729217
0.000461013
0.000744623
0.000326376
0.000671526
0.000638624
0.000657908
0.000602854
0.000570234
0.000507417
0.00035615
0.000688978
0.000206752
0.000540622
0.000138233
0.000367401
0.000181387
0.000210548
0.000274042
0.000344112
0.00081965
0.000997085
0.000418177
9.75568e-05
0.000774472
0.000651481
0.00040816
0.000745441
0.000263587
0.000278312
0.000298436
0.00016988
0.000818475
0.000973155
0.000620499
0.000640249
0.00053369
0.000726715
0.000817652
0.000732381
0.0016269
0.000436695
0.00157036
0.000595166
0.000957155
0.000539953
0.000554458
0.000565396
0.00144827
0.00104703
0.00168824
0.000693097
0.000377166
0.000209669
0.00067096
0.000549854
0.000580761
0.000441183
0.000404745
0.000477606
7.73199e-05
0.00149646
0.000146572
0.000760505
0.00100254
0.000257009
0.000540693
0.00037835
0.000724209
0.000619256
0.000899064
0.00117504
0.00159019
0.000823851
0.00147913
0.000889417
0.000693471
0.000741696
0.000656395
0.00166763
0.000687184
0.00221201
0.00128603
0.00166874
0.000163671
0.00178387
0.000685598
0.000577992
0.000421205
0.000236854
0.00197852
0.00195211
0.00104296
0.000545007
0.000893905
0.000733809
0.00135113
0.00123515
0.00142686
0.000662293
0.0010793
0.000421517
0.000939461
0.000592921
0.00127749
0.000347706
0.000667377
0.000476403
0.00125376
0.00100114
0.000832508
0.00100358
0.000711285
0.00102511
0.0010922
0.000150567
0.000377796
0.00241426
0.00169145
0.00173768
0.00112167
0.000668864
0.00146748
0.000389056
0.00116988
0.00120764
0.000855246
0.0008461
0.000669272
0.000657881
0.000328048
0.000136504
0.000912933
0.00082201
0.00129301
0.000901327
0.000301253
0.000537866
0.000997259
0.00197768
0.000945873
0.00128434
0.00137538
0.000811453
0.00111427
0.000302613
0.000208369
0.00118533
0.000912149
0.000476549
0.00111338
0.0017317
0.000231452
0.00153734
0.00172002
0.00102433
0.000772185
0.000601394
0.000945108
0.00102813
0.00142018
0.00148817
0.00077266
0.000964744
0.00207441
0.00252736
0.0023429
0.00145261
0.000504285
0.00160483
0.00192344
0.00113699
0.00139258
0.000813239
0.00101385
0.00171717
0.000817447
0.00193732
0.00153445
0.000862377
0.00150128
0.00161535
0.00139741
0.0015643
0.00255321
0.00120769
0.00072729
0.00121196
0.00103723
0.000475
0.00118496
0.000437729
0.00160234
0.000128202
0.00127289
0.00033118
0.000988082
0.00101028
0.00108158
0.00142453
0.000909285
0.000614901
0.0012705
0.000940073
0.0015124
0.000675297
0.000495491
0.000596766
0.000266749
0.000649034
0.000344897
0.00172904
0.00105622
0.000976686
0.000259704
0.000711309
0.00103258
0.0012801
0.000926728
0.000307968
0.000926246
0.000342028
0.000976243
0.000557593
0.00061229
0.00157169
0.00111618
0.00107994
0.00107936
0.0014679
0.000601463
0.000782775
0.000288459
0.000896156
0.00159503
0.00248003
0.00172525
0.00138901
0.00208927
0.000739218
0.00162893
0.00172304
0.00287158
0.0016111
0.00102705
0.000458214
0.00215526
0.000906383
0.000800919
0.00167358
0.00162233
0.000482575
0.000717853
0.000998563
0.00138641
0.000889166
0.0004849
0.000858266
0.000401956
0.0020767
0.0009018
0.00138762
0.00162691
0.00085974
0.00142801
0.0016502
0.000936428
0.000347881
0.00155274
0.00162946
0.000875603
0.00149918
0.000403495
0.000530464
0.000826709
0.000219408
0.000439174
0.00132395
0.000288068
0.00115717
0.00133185
0.00201421
0.000617073
0.000638287
0.000747121
0.00083626
0.000646181
0.00018018
0.000852516
0.000426201
0.000383991
0.000730274
0.000659726
0.000441552
0.00102725
0.00144776
0.00107129
0.00158889
0.00055574
0.000534988
0.00115934
0.00120711
0.00181478
0.000367683
0.00145483
0.000294607
0.000859787
0.000803487
0.000961676
0.00160533
0.00212313
0.00162763
0.00165561
0.000384305
0.000511816
0.00117635
0.000216914
0.00169881
0.00164448
0.000892494
0.00120099
0.000115657
0.00165732
0.000741377
0.0021275
0.00183411
0.00179449
0.00331213
0.00102546
0.00297675
0.000204858
0.00115762
0.00077235
0.00178216
0.00139183
0.000782369
0.000967493
0.00119684
0.00111095
0.00108363
0.00103881
0.000215559
0.000962685
0.000625765
0.000845871
0.0011063
0.00102134
0.00159445
0.000834131
0.000960065
0.00038705
0.000827615
0.000304385
0.000611638
0.000608063
0.00109258
0.00219959
0.00172794
0.00224941
0.00268087
0.00179871
0.000462916
0.00202933
0.000165368
0.00126709
0.000785381
0.00134221
0.00117356
0.000645193
0.000543051
0.000404097
0.000277022
0.000447853
0.00105429
0.000219466
0.00136848
0.00114982
0.000243654
0.000489008
0.000534845
8.20554e-05
0.000769605
0.00152866
0.00203017
0.00104343
0.00236455