/*--------------------------------*- C++ -*----------------------------------*\
| =========                 |                                                 |
| \\      /  F ield         | OpenFOAM: The Open Source CFD Toolbox           |
|  \\    /   O peration     | Version:  v2012                                 |
|   \\  /    A nd           | Website:  www.openfoam.com                      |
|    \\/     M anipulation  |                                                 |
\*---------------------------------------------------------------------------*/
FoamFile
{
    version     2.0;
    format      ascii;
    class       volScalarField;
    location    "250";
    object      he_filtered;
}
// * * * * * * * * * * * * * * * * * * * * * * * * * * * * * * * * * * * * * //

dimensions      [0 2 -2 0 0 0 0];


internalField   nonuniform List<scalar> 
65536
(
-5064.39
-5061.23
-5037.75
-5033.51
-5011.07
-5016.47
-4993.72
-5000.64
-4978.6
-4977.49
-4962.25
-4957.28
-4945.51
-4941.93
-4926.29
-4917.41
-4906.13
-4888.31
-4887.78
-4859.38
-4848.96
-4818.13
-4790.96
-4774.33
-4738.11
-4716.93
-4673.83
-4637.98
-4607.51
-4569.02
-4504.68
-4450.72
-4388.28
-4314.81
-4257.4
-4182.01
-4089.88
-4000.12
-3916.31
-3807.4
-3718
-3604.79
-3492.99
-3369.17
-3230.25
-3086.07
-2940.09
-2755.9
-2582.3
-2382.74
-2179.59
-1987.26
-1792.97
-1605.66
-1457.19
-1406.08
-1306.06
-1212.26
-1089.77
-933.557
-773.2
-610.388
-451.858
-294.116
-140.872
6.62896
149.875
278.375
399.211
509.21
608.289
698.065
774.794
840.958
895.756
941.616
981.467
1011.47
1034.17
1050.15
1059.51
1066.26
1065.97
1065.23
1062.7
1060.88
1059.56
1057.46
1054.62
1052.35
1049.02
1045.24
1042.39
1037.61
1032.88
1031.42
1030.75
1032.34
1037.45
1039.13
1044.35
1047.88
1048.84
1050.55
1051.27
1050.87
1049.08
1047.39
1045.84
1044.93
1045.68
1043.21
1044.59
1046.63
1045.5
1045.94
1045.89
1046.74
1048.98
1051.16
1055.73
1060.8
1067.73
1074.53
1079.34
1085.1
1088.23
1089.8
1090.77
1089.98
1088.57
1089.15
1089.78
1091.39
1093.61
1097.19
1100.56
1101.4
1099.72
1096.35
1091.16
1083.31
1075.94
1069.29
1065.05
1059.78
1057.29
1055.64
1055.39
1059.16
1060.58
1064.11
1069.32
1072.72
1077.16
1079.76
1081.09
1079.01
1080.41
1079.15
1080.36
1080.46
1081.89
1082.59
1082.97
1083.98
1085.18
1086.51
1086.78
1091.17
1093.54
1097.61
1101.58
1104.74
1107.9
1110.98
1115.24
1118.87
1120.82
1122.96
1124.46
1123.94
1122.81
1123.49
1123.04
1121.93
1119.58
1116.32
1111.77
1108.93
1104.03
1101.49
1097.68
1093.7
1090.33
1089.13
1088.13
1086.21
1085.55
1084.67
1084.6
1083.91
1086.77
1086.42
1087.44
1087
1085.43
1083.45
1079.3
1074.72
1069.01
1063.67
1060.66
1058.89
1059.27
1062.26
1065.71
1070.33
1073.66
1075.59
1077.26
1075.37
1075.82
1072.87
1073.46
1073.05
1072.09
1070.02
1068.91
1066.61
1063.5
1061.85
1060.84
1063.07
1067.25
1071.86
1077.41
1081.2
1086.11
1089.79
1091.53
1094.8
1096.41
1096.41
1095.9
1093.12
1094.37
1094.06
1094.92
1097.85
1098.5
1099.13
1099.1
1098.75
1101.7
1103.4
1106.38
1110.26
1112.97
1112.41
1111.05
1110.93
1107.58
1105.49
1102.97
1099.52
1094.93
1089
1084.61
1082.07
1080.52
1080.62
1081.98
1084.04
1088.43
1094.21
1097.89
1102.43
1105.46
1107.31
1106.95
1106.06
1105.41
1104.2
1101.16
1098.91
1099.83
1098.38
1100.15
1101.13
1101.03
1100
1098.17
1095.16
1091.59
1088.91
1087.12
1084.11
1080.89
1079.24
1075.28
1073.13
1070.46
1069.88
1067.01
1067.42
1067.53
1070.84
1073.63
1077.94
1080.22
1081.61
1082.32
1081.74
1079.25
1078.29
1075.63
1074.02
1073.46
1072.74
1072.3
1070.72
1068.15
1067.1
1066.67
1066.48
1067.24
1069.85
1070.91
1069.97
1070.51
1070.38
1070.2
1070.42
1071.52
1070.85
1070.38
1072.04
1074.78
1078.19
1082.93
1085.5
1086.41
1084.84
1083.56
1083.19
1080.59
1078.72
1077.11
1078.07
1078.73
1081.65
1084.09
1089.72
1093.42
1097.36
1100.25
1102.5
1104.13
1104.9
1107.01
1107.96
1108.28
1108.24
1108.2
1107.45
1108.47
1107.65
1105.68
1104.79
1101.84
1098.02
1094.85
1092.58
1090.68
1091.39
1093.75
1094.89
1096.8
1097.31
1096.86
1094.5
1091.32
1087.32
1084.59
1081.59
1077.93
1074.93
1070.04
1068.07
1066.72
1072.84
1078.82
1083.99
1087.32
1087.02
1084.72
1080.33
1074.75
1068.38
1062.55
1059.29
1059.08
1058.86
1060.91
1063.4
1065.4
1068.3
1070.66
1075.03
1079.15
1083.57
1088.7
1092.48
1095.26
1096.41
1096.56
1095.61
1096.03
1097.84
1101.42
1104.7
1106.71
1107.82
1106.78
1103.32
1099.93
1093.53
1087.56
1082.49
1076.03
1073.34
1070.33
1065.99
1060.99
1056.24
1049.87
1045.7
1046.16
1046.62
1048.58
1052.31
1057.42
1063.75
1070.6
1076.47
1082.97
1088.42
1093.85
1097.48
1100.29
1104.23
1105.63
1105.37
1103.91
1100.97
1097.89
1095.79
1093.4
1094.4
1091.79
1092.74
1093.71
1093.83
1094.32
1093.48
1091.77
1091.25
1089.58
1088.51
1087.19
1085.17
1085.86
1084.48
1080.91
1077.35
1072.23
1068.56
1064.88
1063.43
1061.21
1061.65
1063.77
1065.2
1067.64
1072.06
1075.75
1077.48
1079.4
1081.26
1081.34
1081.62
1079.53
1078.26
1077.05
1075.33
1073.98
1077.35
1078.59
1084.68
1087.27
1089.77
1091.37
1092.28
1090.2
1088.96
1089.54
1091.74
1095
1099.23
1103.34
1105.74
-5630.71
-5614.39
-5635.36
-5598.05
-5619.47
-5582.51
-5590.42
-5571.2
-5562.2
-5570.01
-5539.77
-5558.14
-5523.39
-5538.16
-5507.14
-5518.34
-5488.7
-5486.09
-5469.09
-5449.32
-5442.03
-5403.75
-5405.92
-5349.45
-5351.42
-5298.01
-5285.18
-5260.11
-5202.37
-5156.6
-5110.9
-5037.75
-4998.45
-4926.74
-4842.62
-4777.05
-4689.17
-4599.29
-4497.77
-4416.01
-4304.73
-4199.7
-4085.13
-3954.95
-3808
-3659.64
-3521.36
-3366.51
-3131.78
-2920.14
-2714.35
-2515.68
-2323.83
-2139.67
-1964.57
-1799.08
-1654.09
-1494.15
-1326.5
-1163.02
-974.871
-800.521
-628.362
-465.28
-307.403
-161.816
-21.9644
120.398
242.907
359.822
462.96
549.426
632.669
700.085
758.33
804.527
835.645
869.161
892.618
908.726
917.655
912.845
918.422
914.266
920.87
920.934
920.377
917.961
918.693
913.47
909.182
906.215
897.152
892.046
886.416
878.001
879.07
883.179
881.388
898.647
901.032
904.538
913.841
913.057
909.952
907.924
910.977
909.031
906.853
901.715
892.344
900.065
901.192
900.395
908.426
907.068
906.087
905.456
907.18
913.741
915.085
922.995
925.235
929.966
942.645
944.141
948.706
949.022
945.075
948.292
951.339
944.894
944.388
946.791
953.211
956.437
956.499
958.115
960.248
956.564
949.189
942.388
930.347
922.733
911.332
913.81
911.975
910.002
910.38
903.999
915.304
920.382
919.79
930.972
936.507
939.2
936.869
939.571
927.876
933.296
933.68
936.567
938.216
938.448
942.171
941.292
936.933
933.117
939.772
935.44
946.48
953.968
958.769
964.175
968.106
971.369
972.89
976.974
983.85
984.199
981.988
984.736
988.423
984.021
983.384
982.631
980.848
976.382
975.024
965.582
967.445
958.685
953.85
953.086
952.144
948.754
945.965
946.877
944.181
940.672
936.953
940.596
934.36
944.423
947.044
947.188
947.206
939.769
938.159
931.59
929.185
925.25
915.99
912.206
910.153
908.861
917.205
925.392
932.988
937.986
932.882
934.358
924.421
933.404
930.311
928.907
927.107
929.197
928.784
926.386
921.761
913.842
916.629
916.315
917.046
926.015
931.598
941.981
944.23
947.736
953.692
954.064
955.342
957.562
953.175
954.464
944.048
950.641
957.533
956.706
960.182
957.574
957.288
957.456
951.432
960.529
969.824
972.346
971.657
973.45
969.244
959.536
964.262
966.983
964.909
959.186
949.865
944.244
937.286
935.292
938.481
937.944
937.779
943.593
947.104
949.743
960.277
962.027
963.487
964.2
965.923
965.479
965.068
960.919
958.887
956.233
946.066
954.394
955.204
957.175
959.232
958.117
952.121
952.86
950.044
947.28
940.956
936.299
933.72
926.722
929.402
926.544
926.588
919.708
920.96
913.245
916.974
916.878
927.144
931.237
937.161
941.565
940.308
937.376
937.662
927.862
930.307
932.754
932.191
932.6
932.301
931.809
932.482
925.262
918.542
917.867
924.181
924.889
927.083
933.022
930.052
928.355
928.253
927.317
923.09
927.072
930.09
930.158
930.173
936.776
939.673
943.464
945.264
949.552
946.489
940.921
941.823
939.321
936.644
929.751
935.846
938.879
945.836
944.137
950.671
953.303
956.088
958.371
959.492
963.643
964.09
966.369
967.451
964.17
965.496
968.723
964.456
966.381
967.565
962.954
962.673
960.863
953.582
945.823
945.925
944.674
945.389
952.058
952.955
957.214
958.628
959.016
954.256
949.407
944.852
940.415
937.741
930.104
925.751
914.404
918.767
924.707
937.562
946.139
947.956
950.528
945.862
940.775
934.754
930.668
927.007
918.768
910.558
916.998
920.878
923.622
926.742
927.002
926.521
925.056
933.419
944.499
948.051
951.726
953.866
956.944
956.471
953.637
949.674
955.426
959.352
963.615
968.633
967.57
966.587
968.705
959.324
954.801
942.478
930.641
934.349
931.336
930.301
929.374
919.682
907.154
906.318
904.452
894.589
898.444
906.541
911.089
914.679
923.742
929.434
940.263
944.054
949.642
952.452
959.838
966.654
964.722
967.554
966.674
964.669
962.423
958.477
952.457
949.165
938.628
949.484
950.763
951.117
953.183
951.319
951.311
953.598
948.115
947.013
943.136
940.774
945.12
942.133
940.306
939.977
935.953
934.708
927.379
923.075
912.762
914.633
913.203
912.099
921.807
931.679
930.93
931.469
935.718
941.239
940.106
938.409
932.612
937.302
938.827
937.098
933.875
931.921
921.388
930.754
929.317
941.207
951.407
954.821
950.549
952.428
946.554
943.766
942.17
949.383
958.579
964.239
963.837
-6359.32
-6349
-6339.62
-6319.17
-6320.81
-6289.37
-6322.22
-6270.18
-6316.14
-6249.02
-6289.06
-6236.86
-6270.55
-6218.88
-6250.62
-6200.03
-6204.14
-6211.08
-6155.65
-6197.13
-6124.83
-6138.48
-6092.57
-6066.39
-6056.73
-6012.02
-6006.8
-5974.65
-5946.37
-5850.72
-5826.29
-5754.75
-5664.9
-5614.5
-5525.39
-5456.65
-5377.49
-5277.64
-5196.89
-5096.91
-5014.71
-4935.54
-4775.12
-4624.71
-4473.69
-4342.49
-4254.94
-4012.7
-3813.34
-3600.84
-3379.07
-3182.96
-2945.61
-2750.35
-2538.23
-2330.71
-2136.4
-1917.6
-1730.8
-1527.24
-1343.64
-1150.98
-963.014
-786.044
-616.255
-458.699
-310.625
-183.12
-52.5507
67.9264
175.115
277.566
352.436
420.055
472.033
512.53
561.583
592.108
618.569
633.975
640.156
644.349
635.148
636.369
626.096
635.821
635.94
641.871
633.732
632.235
628.851
618.974
615.174
609.59
598.632
580.02
583.995
590.429
601.238
598.751
615.416
626.172
618.669
625.711
632.661
631.313
620.456
617.955
611.393
609.745
612.793
607.764
612.903
618.797
608.662
613.988
617.044
616.989
618.875
618.014
627.913
625.538
643.334
654.503
649.174
663.168
668.034
669.698
671.998
667.189
661.763
666.862
663.977
667.256
670.249
674.347
681.846
684.428
679.253
675.538
667.799
653.96
643.652
631.619
634.057
627.945
623.312
616.919
611.91
622.343
624.361
627.407
634.827
643.645
651.248
655.101
652.245
638.132
647.403
643.883
644.781
649.599
646.431
659.066
657.158
657.513
658.558
656.486
645.713
656.882
663.177
669.151
677.549
679.286
678.275
678.737
689.607
695.224
696.707
700.533
704.717
698.838
690.622
698.143
700.301
698.127
691.307
688.137
676.238
678.384
663.145
666.746
664.324
650.073
648.774
653.63
656.775
652.757
655.398
658.309
655.876
649.498
654.855
660.016
665.591
667.964
660.855
666.895
659.262
656.313
641.403
628.022
626.265
623.481
624.405
629.361
639.311
648.637
653.425
652.584
654.33
641.058
639.568
628.547
636.352
634.453
630.966
631.857
634.818
635.188
633.555
633.543
627.129
627.36
629.12
638.822
651.264
648.933
656.182
656.571
658.639
666.876
674.852
671.83
669.325
653.23
654.001
656.876
660.474
671.9
676.105
682.106
674.328
666.32
666.406
671.663
678.069
690.323
695.49
688.247
683.381
682.585
677.27
672.504
673.153
672.652
670.546
651.08
633.12
645.922
648.174
648.336
648.761
649.718
662.931
675.473
674.078
678.522
679.837
678.422
677.648
677.421
673.785
673.289
669.014
655.484
657.185
658.704
670.146
677.488
674.345
667.198
668.056
648.804
649.722
648.232
650.622
649.859
641.687
636.289
628.664
629.853
625.379
631.719
623.233
621.205
614.33
608.48
629.286
649.859
654.031
649.17
653.872
657.294
647.04
652.946
650.25
649.415
649.119
648.927
642.373
638.095
627.622
627.259
625
625.655
626.077
636.288
639.843
631.484
635.699
635.205
632.903
637.163
643.47
634.316
627.631
629.837
640.691
648.169
656.252
660.444
660.14
647.981
649.609
655.044
653.621
651.151
645.545
647.501
645.72
648.524
648.265
661.442
665.576
674.32
676.501
675.502
674.306
669.122
676.451
678.338
672.955
676.643
673.693
671.182
680.232
675.424
672.326
674.859
667.125
655.727
654.74
652.774
647.479
652.646
661.479
662.14
669.034
674.049
676.019
671.156
667.468
660.64
655.792
654.12
649.826
646.98
629.453
612.964
606.008
632.109
650.434
661.958
668.215
663.996
666.709
661.944
650.515
634.077
620.857
619.567
619.743
624.681
632.732
636.366
637.509
636.707
639.576
638.093
650.282
656.851
670.501
679.926
683.927
677.97
670.286
664.2
656.885
663.696
676.707
686.133
687.633
689.836
686.881
672.868
675.231
664.572
658.121
646.196
638.263
644.724
649.747
641.554
639.054
632.153
622.339
616.134
620.754
620.228
617.168
622.219
630.63
633.601
650.473
654.516
666.633
670.759
675.967
673.745
671.48
683.344
683.752
687.222
680.18
671.544
663.533
660.571
653.482
656.445
651.727
660.134
666.549
666.856
670.601
672.764
664.537
663.451
658.224
654.339
649.625
647.345
652.166
654.312
648.691
643.439
636.031
638.728
626.355
619.24
622.671
626.755
627.191
630.921
631.114
645.374
651.226
653.259
653.406
658.368
656.962
654.125
653.793
650.407
646.159
640.677
625.98
627.198
630.053
649.892
660.141
662.091
664.596
665.737
649.925
652.109
647.174
646.927
662.504
673.779
678.712
691.56
-7160.9
-7180.62
-7132.73
-7179.29
-7116.47
-7160.55
-7098.96
-7131.56
-7103.07
-7112.34
-7113.53
-7091.39
-7103.56
-7073.59
-7082.9
-7048.13
-7059.93
-7022.15
-7032.35
-7005.1
-6985.52
-6986.64
-6928.25
-6955.6
-6868.04
-6890.59
-6859.65
-6915.17
-6792.38
-6714.86
-6650.41
-6602.17
-6510.8
-6455.15
-6395.58
-6331.07
-6201.21
-6104.15
-5986.03
-5921.58
-5818.51
-5812.58
-5591.55
-5415.27
-5264.31
-5081.79
-5028.08
-4798.53
-4553.58
-4305.27
-4071.64
-3851.86
-3650.67
-3411.94
-3176.65
-2923.65
-2706.74
-2477.89
-2236.37
-2025.52
-1806.31
-1607.2
-1408
-1208.03
-1031.13
-877.673
-755.497
-581.137
-434.046
-301.018
-186.105
-93.2058
-5.84974
59.2596
110.765
155.817
191.14
228.452
251.654
266.066
265.211
230.339
251.779
227.974
258.925
264.076
273.263
262.307
267.126
264.093
253.442
243.71
232.543
219.597
197.059
146.286
181.349
199.938
172.968
219.643
236.301
238.552
252.865
252.031
248.649
247.71
246.878
239.821
239
226.023
193.146
200.937
224.896
228.185
234.677
232.045
225.562
217.264
230.041
240.261
242.082
255.189
259.514
263.764
280.474
285.573
289.279
280.958
263.415
281.532
291.088
283.476
284.568
284.335
291.351
298.325
294.731
294.179
299.794
298.259
286.253
266.412
240.343
235.322
212.075
232.916
236.968
225.343
213.7
186.457
240.205
252.004
218
261.772
278.19
283.144
275.267
259.05
221.025
248.931
259.636
257.387
265.064
254.718
265.497
269.056
255.946
242.382
258.061
228.332
266.956
287.891
290.18
292.868
290.595
278.981
292.475
310.751
320.921
328.198
322.694
322.085
322.261
316.609
317.439
316.755
317.182
302.868
296.554
280.744
288.808
281.077
272.589
271.34
253.682
267.236
269.984
270.092
272.584
264.85
248.182
257.708
227.555
279.041
294.734
290.825
291.245
276.864
276.665
264.814
262.574
254.153
241.492
233.302
221.423
198.317
234.443
258.786
277.475
283.965
275.068
264.334
215.586
246.904
250.764
244.763
227.357
234.348
255.98
260.826
245.22
213.933
234.339
234.772
208.397
246.996
255.32
268.786
269.737
272.229
269.847
287.198
292.056
298.647
289.604
276.028
227.285
263.544
272.749
291.391
302.031
296.239
298.32
284.37
249.711
296.967
317.295
322.78
324.192
321.703
300.154
268.093
286.161
302.896
306.739
299.657
278.381
262.47
207.848
252.551
275.114
281.187
276.237
280.405
282.379
282.736
296.241
298.417
296.847
296.542
292.703
280.512
295.664
295.118
277.793
262.995
222.069
267.11
278.75
282.453
288.146
289.527
270.166
271.884
266.943
267.425
259.645
250.997
242.079
222.799
236.762
238.229
234.977
228.693
227.258
186.407
210.105
170.523
242.215
257.438
267.843
278.308
274.532
264.229
265.421
233.669
252.568
262.478
266.686
264.178
267.465
265.449
259.289
242.969
217.418
214.209
239.93
249.152
253.808
257.158
251.537
255.015
259.165
256.104
251.043
260.305
258.632
251.697
250.513
265.195
276.385
283.373
278.865
280.549
268.813
272.278
273.818
270.582
261.538
230.118
258.494
269.324
272.76
270.786
285.009
285.624
287.796
279.66
273.813
281.813
287.389
293.779
293.079
271.64
287.722
297.385
293.551
293.55
283.945
287.942
291.259
287.611
270.782
252.29
254.844
252.263
260.077
273.978
272.236
292.623
306.15
309.108
292.987
273.453
278.616
280.404
275.162
266.974
246.554
179.993
171.427
242.093
281.512
298.088
302.951
305.492
297.506
287.095
275.82
264.224
250.826
235.103
198.477
239.641
254.845
264.815
265.295
266.721
251.738
212.95
257.4
286.248
292.486
290.679
293.03
306.271
306.079
282.262
234.594
276.241
292.942
304.376
312.545
313.769
303.071
297.826
296.68
293.998
266.002
215.183
253.811
271.032
275.97
282.368
259.35
213.607
226.027
220.921
197.898
219.46
235.994
236.989
223.729
253.953
269.474
289.826
292.658
298.805
296.796
301.325
308.292
303.761
309.589
300.133
300.051
291.383
282.5
274.937
261.669
219.863
263.91
280.427
284.679
289.181
291.701
287.293
291.157
281.841
273.163
260.726
249.479
236.413
263.311
273.222
280.551
273.077
265.141
255.938
245.395
195.015
231.782
229.552
201.288
241.208
264.189
262.855
258.794
256.376
278.087
283.885
272.675
233.654
264.479
275.054
272.125
253.97
232.021
192.166
236.749
234.486
263.579
289.757
294.141
284.473
275.771
237.821
244.725
215.619
262.776
289.421
309.522
302.914
-8166.5
-8148.12
-8146.99
-8110.61
-8118.81
-8101.27
-8103.17
-8107.59
-8081.34
-8095.51
-8054.88
-8079.1
-8040.88
-8071.4
-8028.02
-8049.09
-8019.45
-8003.01
-8018.7
-7968.94
-7988.11
-7925.25
-7915.03
-7887.57
-7871.47
-7845.91
-7805.63
-7894.34
-7740.05
-7692.01
-7597.93
-7518.8
-7448.33
-7351.03
-7315.62
-7339.96
-7139.22
-6994.35
-6906.55
-6852.78
-6692.24
-6663.7
-6480.46
-6304.6
-6152.48
-5867.87
-5681.56
-5619.25
-5367.82
-5154.04
-4875.32
-4669.2
-4512.32
-4248.26
-3947.31
-3641.79
-3437.23
-3131.59
-2866.94
-2609.81
-2390.56
-2197.2
-1953.7
-1728.22
-1519.61
-1348.01
-1260.33
-1057.04
-889.002
-752.339
-635.126
-527.96
-434.361
-368.223
-328.255
-334.657
-264.763
-207.878
-170.77
-148.457
-153.613
-218.637
-180.8
-225.104
-203.616
-169.626
-165.719
-166.36
-165.403
-171.325
-184.802
-215.619
-229.757
-220.644
-231.81
-297.067
-282.336
-247.202
-297.448
-258.254
-204.577
-192.452
-220.16
-191.031
-181.84
-191.52
-208.226
-207.669
-227.371
-229.072
-289.328
-286.949
-221.084
-213.401
-256.03
-218.035
-218.022
-263.559
-216.531
-212.488
-205.524
-235.862
-185.66
-175.996
-201.435
-153.015
-145.305
-157.242
-204.767
-163.988
-157.379
-158.493
-174.893
-160.352
-145.384
-139.651
-135.918
-147.13
-144.018
-142.309
-153.184
-177.927
-240.113
-236.357
-264.873
-206.594
-214.295
-254.409
-275.495
-290.15
-205.965
-192.206
-228.323
-177.905
-174.271
-162.913
-176.349
-231.466
-264.052
-209.04
-218.159
-208.687
-225.776
-194.269
-179.733
-173.311
-178.078
-225.519
-204.242
-239.429
-172.576
-157.743
-148.894
-148.219
-165.533
-222.868
-160.564
-141.143
-125.825
-122.143
-119.283
-132.066
-160.594
-132.729
-124.696
-123.525
-138.696
-154.952
-190.526
-183.037
-207.594
-184.219
-188.4
-228.054
-257.53
-197.998
-186.797
-218.426
-183.979
-183.249
-231.506
-195.777
-231.032
-160.279
-145.113
-148.486
-171.279
-163.265
-167.646
-177.595
-195.778
-233.299
-241.852
-246.787
-231.814
-270.18
-203.797
-184.1
-162.025
-163.036
-174.034
-199.373
-261.774
-245.556
-206.707
-224.411
-284.563
-267.538
-204.339
-182.899
-189.697
-247.038
-201.465
-193.568
-234.702
-189.393
-190.214
-211.83
-187.812
-201.692
-229.874
-170.881
-144.096
-146.119
-157.917
-198.632
-237.137
-188.98
-214.37
-161.336
-147.572
-132.928
-143.426
-159.354
-202.002
-155.67
-144.13
-113.978
-108.209
-125.431
-154.293
-219.674
-167.398
-155.652
-150.828
-152.229
-156.884
-183.291
-224.898
-178.798
-172.631
-186.25
-198.578
-204.389
-175.311
-153.51
-151.72
-150.114
-162.208
-172.899
-172.618
-211.449
-171.397
-164.383
-172.639
-215.298
-261.396
-201.867
-180.717
-163.012
-161.54
-176.961
-189.692
-239.257
-226.012
-212.281
-209.915
-205.057
-220.109
-274.22
-244.305
-237.119
-269.203
-222.853
-226.427
-275.119
-223.012
-266.734
-197.69
-173.589
-176.815
-199.072
-186.489
-177.794
-197.669
-251.744
-207.189
-190.792
-197.155
-184.994
-198.524
-198.848
-237.235
-226.123
-281.219
-287.144
-238.947
-202.698
-199.189
-234.692
-204.644
-208.204
-220.553
-209.46
-210.97
-215.518
-244.998
-236.305
-232.916
-193.767
-170.851
-164.464
-171.944
-216.956
-232.576
-183.572
-165.3
-165.452
-179.853
-229.104
-183.278
-188.959
-223.919
-205.826
-179.56
-157.247
-160.358
-163.671
-179.781
-215.81
-173.895
-160.228
-175.603
-222.802
-185.33
-197.295
-161.066
-168.992
-208.197
-172.88
-175.791
-210.466
-205.028
-241.74
-236.871
-236.407
-189.348
-180.232
-208.112
-155.087
-137.473
-138.475
-148.903
-205.552
-164.348
-161.186
-192.038
-163.493
-183.872
-255.292
-253.702
-184.919
-157.882
-141.658
-144.599
-164.639
-151.091
-151.793
-176.702
-220.977
-248.127
-222.407
-256.456
-203.574
-194.018
-186.46
-190.27
-204.233
-197.36
-236.363
-175.384
-161.821
-149.244
-138.334
-133.532
-140.049
-145.295
-155.958
-212.224
-162.429
-148.975
-131.959
-129.654
-135.852
-144.835
-189.218
-152.492
-159.541
-182.891
-252.263
-222.678
-184.43
-155.12
-157.969
-170.681
-241.441
-205.228
-214.827
-275.899
-223.21
-225.688
-225.006
-269.136
-220.318
-174.63
-162.765
-151.805
-152.29
-150.2
-159.245
-178.743
-143.607
-135.833
-130.772
-146.043
-169.557
-200.938
-184.133
-210.494
-280.705
-209.572
-176.22
-160.057
-155.873
-156.158
-156.82
-170.266
-177.861
-178.148
-190.683
-241.87
-277.084
-205.683
-194.257
-191.419
-188.436
-222.825
-186.514
-197.484
-251.481
-207.895
-212.588
-256.129
-202.89
-206.876
-183.112
-183.196
-223.915
-172.666
-148.198
-154.482
-215.893
-169.476
-176.754
-174.641
-189.387
-258.682
-281.965
-229.235
-244.552
-177.284
-161.466
-155.656
-166.705
-217.65
-264.638
-207.614
-234.936
-178.768
-147.229
-143.002
-129.762
-9213.26
-9198.01
-9205.44
-9178.38
-9195.87
-9185.54
-9199.62
-9197.24
-9181.6
-9185.05
-9158.07
-9164.83
-9145.32
-9156.53
-9133.11
-9140.22
-9118.08
-9112.26
-9108.12
-9082.79
-9078.46
-9038.8
-9020.97
-8995.22
-8982.24
-8933.18
-8862.58
-8731.98
-8790.69
-8744.62
-8718.88
-8594.69
-8534.62
-8436.62
-8317.92
-8311.59
-8173.49
-8036.01
-7850.65
-7688.74
-7533.43
-7405.58
-7367.75
-7174.95
-7019.54
-6724.93
-6525.78
-6475.04
-6274.79
-6039.49
-5717.23
-5530.11
-5304.38
-5046.44
-4757.82
-4384.87
-4191.7
-3880.15
-3538.41
-3267.05
-3044.93
-2888.28
-2573.93
-2301.33
-2073.16
-1862.87
-1705.85
-1572.82
-1387.51
-1234.68
-1112.65
-1000.95
-917.032
-841.944
-825.088
-841.931
-778.823
-681.995
-650.2
-620.552
-604.59
-585.309
-593.838
-610.943
-671.745
-653.736
-648.178
-684.355
-656.372
-656.464
-681.133
-751.158
-773.453
-739.134
-716.063
-690.19
-707.398
-666.322
-654.023
-715.114
-679.931
-702.873
-735.408
-685.927
-680.799
-697.521
-732.49
-734.923
-760.526
-697.098
-687.668
-729.061
-699.867
-728.803
-771.257
-732.469
-730.735
-739.148
-706.679
-732.162
-705.215
-749.18
-693.77
-703.294
-718.395
-659.595
-637.235
-646.431
-654.517
-640.572
-632.632
-654.052
-662.639
-660.141
-638.812
-637.1
-674.55
-704.017
-673.635
-641.793
-649.679
-685.342
-710.864
-723.767
-675.47
-674.743
-673.426
-716.858
-721.446
-650.264
-636.801
-621.52
-623.213
-639.354
-689.493
-644.458
-653.726
-717.088
-673.119
-683.047
-750.46
-717.674
-783.44
-752.472
-715.564
-675.423
-686.229
-657.632
-639.317
-635.808
-656.282
-653.08
-680.05
-676.545
-666.019
-726.248
-683.957
-655.683
-651.871
-621.886
-625.827
-633.581
-685.343
-639.327
-623.215
-627.697
-644.531
-675.179
-745.949
-733.845
-746.505
-683.69
-684.72
-744.433
-752.845
-690.096
-686.574
-725.719
-668.614
-660.841
-688.794
-640.592
-606.561
-612.136
-624.408
-664.32
-701.559
-700.464
-674.971
-706.402
-684.436
-742.578
-735.791
-772.579
-733.33
-696.626
-705.453
-715.876
-664.911
-659.524
-694.141
-651.309
-665.437
-726.743
-690.699
-731.666
-768.801
-744.341
-675.586
-654.783
-657.415
-655.29
-682.585
-656.21
-641.679
-655.47
-709.251
-720.515
-685.704
-728.838
-730.382
-667.952
-656.447
-626.438
-634.175
-682.578
-645.104
-647.695
-693.969
-640.101
-629.897
-652.085
-630.935
-639.998
-619.577
-606.389
-639.14
-596.172
-588.824
-597.169
-638.264
-701.338
-672.321
-658.675
-651.928
-650.005
-675.072
-648.55
-644.751
-653.146
-644.668
-661.023
-717.779
-720.051
-676.562
-694.476
-680.135
-671.945
-705.266
-715.504
-669.9
-689.158
-647.178
-653.103
-703.576
-739.037
-683.746
-674.641
-712.021
-681.486
-667.754
-690.488
-731.534
-781.193
-769.348
-737.846
-752.604
-736.858
-722.623
-753.528
-754.119
-737.2
-799.664
-750.337
-700.363
-658.396
-654.457
-626.384
-654.755
-689.623
-683.515
-721.293
-691.239
-712.323
-668.521
-663.477
-715.329
-680.35
-726.965
-697.096
-730.288
-695.529
-744.55
-703.357
-745.225
-752.651
-744.891
-711.192
-702.012
-755.612
-725.978
-709.646
-734.337
-710.277
-755.373
-707.876
-766.569
-752.391
-720.042
-686.377
-683.518
-660.678
-677.295
-742.298
-737.56
-676.665
-673.636
-669.712
-653.475
-644.203
-653.944
-678.497
-760.909
-754.844
-678.008
-665.462
-669.583
-711.699
-739.43
-757.046
-685.478
-658.308
-661.805
-695.231
-670.442
-713.417
-666.165
-667.798
-707.073
-671.395
-672.67
-728.852
-695.051
-727.448
-743.942
-729.054
-699.309
-668.365
-679.342
-630.752
-608.666
-609.741
-631.184
-678.665
-649.302
-648.542
-668.17
-630.274
-624.606
-630.104
-639.444
-657.484
-622.955
-620.799
-627.318
-673.075
-630.093
-638.918
-666.487
-751.627
-761.288
-688.3
-665.222
-668.734
-705.897
-683.649
-706.838
-711.744
-660.757
-650.5
-671.581
-647.15
-645.316
-667.074
-667.818
-626.52
-619.529
-622.728
-615.073
-642.916
-670.397
-638.65
-613.66
-622.32
-645.612
-698.568
-646.284
-640.823
-668.941
-632.795
-680.424
-653.291
-619.769
-605.852
-627.776
-642.851
-699.721
-715.281
-694.234
-727.186
-738.462
-699.583
-732.501
-724.682
-670.592
-644.345
-637.367
-635.974
-654.331
-665.218
-716.643
-658.21
-639.745
-663.942
-648.414
-684.528
-697.543
-669.812
-687.362
-751.548
-691.549
-663.709
-670.865
-669.205
-663.944
-664.529
-665.315
-706.328
-675.507
-693.29
-718.784
-751.045
-687.989
-714.586
-672.954
-685.883
-727.054
-683.832
-652.624
-646.51
-677.276
-705.348
-661.876
-672.185
-711.978
-676.166
-689.575
-702.202
-652.697
-626.71
-618.254
-609.762
-642.709
-689.535
-664.972
-678.338
-727.466
-684.012
-674.934
-681.539
-692.375
-651.487
-656.473
-660.597
-721.033
-721.059
-655.393
-649.334
-684.579
-647.737
-637.394
-666.359
-10093.6
-10120.5
-10093.9
-10148.6
-10114.4
-10158.1
-10123.6
-10148.1
-10139.5
-10138.1
-10155.5
-10121
-10148
-10111.2
-10135.5
-10105.3
-10112
-10097.5
-10082.7
-10088.6
-10049.5
-10064.4
-10027.7
-10022.4
-9973.6
-9945.16
-9898.47
-9731.01
-9816.88
-9776.67
-9738.32
-9683.5
-9594.94
-9515
-9362.04
-9196.3
-9193.63
-9100.45
-8937.21
-8727.2
-8563.87
-8406.24
-8298.38
-8111.86
-7842.76
-7634.06
-7388.72
-7343.23
-7160.5
-6892.94
-6581.37
-6169.56
-5886.61
-5654.56
-5444.5
-5096.75
-4788.78
-4588.75
-4262.75
-3949.25
-3695.81
-3551.83
-3267.08
-2958.83
-2730.95
-2437.78
-2230.61
-2114.24
-1923.13
-1778
-1702.29
-1571.05
-1427.31
-1328.05
-1262.62
-1193.32
-1224.63
-1175.5
-1181.9
-1126.5
-1123.45
-1068.04
-1073.86
-1060.59
-1095.4
-1159.41
-1152.14
-1207.13
-1176.77
-1162.65
-1186.94
-1255.95
-1279.38
-1280.07
-1233.38
-1148.49
-1139.74
-1128.19
-1107.68
-1121.4
-1151.45
-1216.08
-1210.6
-1180.47
-1183.3
-1226.48
-1222.37
-1271.21
-1272.62
-1190.33
-1139.59
-1137.12
-1154.69
-1215.45
-1190.74
-1245.36
-1232.47
-1170.74
-1174.07
-1231.34
-1195.83
-1150.92
-1170.56
-1218.58
-1188.1
-1151.11
-1145.1
-1165.31
-1162.74
-1152
-1148.87
-1177.67
-1171.93
-1158.8
-1140.69
-1162.78
-1226.1
-1238.44
-1166.07
-1159.37
-1177.69
-1201.43
-1176.87
-1186.49
-1137.99
-1145.16
-1168
-1163.71
-1150.37
-1135.06
-1135.97
-1138.77
-1098.95
-1130.01
-1198.3
-1154.68
-1148.08
-1168.76
-1134.97
-1158.95
-1232.29
-1236.37
-1272.52
-1281.81
-1243.21
-1189.81
-1203.94
-1140.23
-1154.62
-1125.24
-1178.17
-1181.84
-1225.38
-1233.49
-1174.89
-1154.2
-1226.05
-1217.31
-1225.48
-1157.84
-1167.94
-1155.05
-1191.95
-1158.68
-1160.01
-1163.32
-1207.54
-1210.64
-1266.32
-1272.24
-1218.61
-1202.36
-1184.08
-1196.42
-1169.16
-1204.19
-1189.55
-1223.73
-1181.17
-1160.03
-1132.19
-1147.69
-1095.29
-1101.68
-1129.12
-1195.18
-1199.03
-1233.22
-1191.47
-1238.54
-1186.02
-1174.28
-1209.19
-1254.38
-1260.18
-1196.65
-1232.47
-1232.83
-1168.4
-1202.75
-1216.5
-1177.81
-1121.03
-1122.42
-1165.53
-1195.58
-1155.64
-1170.06
-1169.32
-1167.44
-1157.68
-1145.23
-1187.3
-1133.95
-1112.14
-1141.66
-1211.4
-1169.99
-1170.4
-1210.25
-1172.46
-1168.05
-1199.51
-1159.66
-1149.19
-1121.81
-1103.42
-1126.55
-1136.84
-1173.56
-1191.91
-1206.55
-1153.88
-1118.99
-1082.73
-1093.19
-1083.43
-1089.73
-1101.81
-1120.57
-1149.4
-1212.81
-1190.9
-1231.55
-1226.31
-1200.63
-1224.12
-1175.29
-1147.91
-1177.06
-1161.34
-1191.96
-1216.53
-1193.08
-1193.08
-1259.81
-1248.49
-1190.69
-1227.83
-1232.71
-1169.77
-1156.19
-1177.33
-1188.49
-1255.22
-1254.23
-1181.5
-1197.52
-1236.58
-1231.02
-1202.9
-1254.32
-1271.54
-1240.99
-1224.88
-1283
-1282.83
-1259.77
-1212.23
-1210.51
-1219.25
-1237.95
-1299.89
-1290.93
-1238.27
-1161
-1149.95
-1165.86
-1172.2
-1221.7
-1193.55
-1190.41
-1232.3
-1261.61
-1207.07
-1173.15
-1219.02
-1188.09
-1222.66
-1201.27
-1236.08
-1179.65
-1145.03
-1155.78
-1168.91
-1175.13
-1203.45
-1223.39
-1189.05
-1189.02
-1243.23
-1220.32
-1236.25
-1241.47
-1284.42
-1232.15
-1173.98
-1178.77
-1192.04
-1194.63
-1213.5
-1179.17
-1191.54
-1154.21
-1150
-1182.01
-1199.74
-1202.08
-1159.32
-1133.18
-1141.59
-1180.98
-1254.19
-1269.15
-1214.75
-1188.43
-1208.44
-1272.5
-1303.77
-1280.01
-1206.22
-1190.66
-1205.35
-1167.7
-1159.75
-1140.67
-1163.13
-1195.67
-1192.26
-1198.31
-1202.54
-1169.38
-1182.88
-1190
-1204.36
-1211.4
-1210.83
-1157.9
-1139.39
-1144.03
-1139.86
-1152.38
-1121.32
-1111.91
-1131.41
-1121.04
-1104.96
-1095.03
-1092.78
-1104.38
-1170.27
-1200.53
-1149.71
-1136.03
-1153.4
-1129.96
-1130.8
-1136.57
-1173.76
-1227.66
-1183.77
-1188.73
-1146.68
-1165.29
-1215.78
-1175.52
-1200
-1177.86