/*--------------------------------*- C++ -*----------------------------------*\
| =========                 |                                                 |
| \\      /  F ield         | OpenFOAM: The Open Source CFD Toolbox           |
|  \\    /   O peration     | Version:  v2012                                 |
|   \\  /    A nd           | Website:  www.openfoam.com                      |
|    \\/     M anipulation  |                                                 |
\*---------------------------------------------------------------------------*/
FoamFile
{
    version     2.0;
    format      ascii;
    class       volScalarField;
    location    "250";
    object      p;
}
// * * * * * * * * * * * * * * * * * * * * * * * * * * * * * * * * * * * * * //

dimensions      [1 -1 -2 0 0 0 0];


internalField   nonuniform List<scalar> 
65536
(
158410
158408
158409
158404
158404
158398
158397
158391
158387
158381
158374
158367
158359
158349
158339
158327
158315
158303
158287
158273
158255
158237
158218
158197
158177
158152
158129
158103
158078
158049
158021
157990
157962
157932
157900
157871
157841
157811
157783
157755
157728
157702
157678
157656
157633
157612
157594
157577
157562
157550
157540
157532
157526
157521
157515
157512
157510
157509
157510
157511
157513
157516
157519
157523
157527
157530
157534
157538
157541
157544
157547
157548
157550
157551
157552
157552
157553
157553
157553
157554
157554
157554
157553
157553
157553
157552
157551
157550
157549
157548
157547
157545
157544
157542
157540
157539
157537
157535
157533
157532
157530
157529
157527
157526
157524
157523
157521
157520
157519
157517
157516
157514
157513
157512
157510
157509
157507
157506
157505
157503
157502
157501
157500
157499
157498
157497
157496
157495
157495
157494
157493
157492
157491
157490
157489
157488
157488
157487
157486
157485
157484
157483
157483
157482
157481
157480
157479
157478
157478
157477
157476
157475
157475
157474
157473
157473
157472
157472
157471
157471
157470
157470
157470
157470
157469
157469
157469
157469
157469
157468
157468
157468
157468
157467
157467
157466
157466
157465
157465
157464
157464
157463
157463
157462
157462
157462
157462
157461
157461
157461
157461
157461
157461
157461
157461
157461
157461
157461
157460
157460
157460
157460
157459
157459
157458
157458
157457
157457
157456
157456
157455
157454
157454
157454
157454
157453
157453
157453
157453
157452
157452
157452
157452
157451
157451
157450
157450
157450
157449
157449
157449
157448
157448
157448
157448
157448
157447
157447
157447
157447
157446
157446
157446
157445
157445
157445
157445
157444
157444
157444
157443
157443
157443
157442
157442
157442
157441
157441
157441
157441
157440
157440
157440
157440
157440
157440
157440
157440
157440
157439
157439
157439
157438
157438
157438
157437
157437
157436
157436
157435
157435
157434
157434
157434
157433
157433
157433
157432
157432
157431
157431
157431
157430
157430
157430
157430
157430
157430
157430
157430
157430
157430
157430
157431
157430
157430
157430
157430
157430
157429
157429
157429
157428
157428
157428
157427
157427
157427
157427
157427
157427
157427
157427
157427
157427
157427
157427
157427
157427
157427
157427
157427
157427
157426
157426
157426
157426
157425
157425
157425
157424
157424
157424
157424
157423
157423
157423
157423
157423
157423
157423
157423
157423
157423
157423
157423
157423
157423
157423
157423
157423
157423
157423
157423
157423
157423
157423
157423
157423
157424
157424
157424
157425
157425
157425
157426
157426
157426
157426
157426
157427
157427
157427
157427
157427
157427
157428
157428
157428
157428
157429
157429
157429
157429
157429
157429
157429
157429
157429
157429
157429
157430
157430
157430
157430
157430
157431
157431
157431
157431
157431
157431
157430
157430
157430
157430
157430
157430
157430
157430
157430
157430
157430
157431
157431
157431
157432
157432
157433
157433
157433
157434
157434
157435
157435
157435
157436
157436
157436
157437
157437
157437
157437
157437
157437
157437
157437
157436
157436
157436
157436
157436
157437
157437
157437
157437
157437
157437
157438
157438
157438
157438
157438
157437
157437
157437
157437
157437
157437
157437
157438
157438
157438
157438
157439
157439
157439
157439
157440
157440
157440
157440
157440
157441
157441
157441
157441
157441
157441
157441
157441
157441
157441
157442
157442
157442
157442
157442
157441
157441
157441
157441
157441
157440
157440
157440
157440
157440
157440
157440
157440
157440
157487
157488
157483
157486
157480
157480
157475
157471
157468
157457
157456
157443
157440
157426
157421
157405
157396
157382
157367
157354
157334
157320
157297
157281
157256
157236
157210
157184
157160
157131
157104
157077
157043
157016
156986
156955
156927
156898
156869
156842
156815
156790
156765
156741
156720
156701
156684
156669
156654
156642
156633
156625
156618
156615
156612
156607
156606
156605
156606
156608
156611
156614
156618
156622
156626
156631
156635
156639
156643
156646
156648
156650
156652
156653
156655
156655
156656
156657
156657
156657
156657
156657
156657
156657
156657
156656
156656
156654
156653
156652
156651
156649
156648
156646
156645
156643
156641
156639
156637
156636
156634
156633
156631
156630
156629
156627
156626
156624
156623
156622
156620
156619
156618
156616
156615
156613
156612
156611
156609
156608
156607
156605
156604
156603
156603
156602
156601
156600
156600
156599
156598
156597
156596
156595
156594
156593
156592
156591
156591
156590
156589
156588
156588
156587
156586
156585
156584
156583
156583
156582
156581
156580
156580
156579
156579
156578
156577
156577
156576
156576
156576
156575
156575
156575
156575
156574
156574
156574
156574
156574
156573
156573
156573
156572
156572
156571
156571
156570
156570
156569
156569
156568
156568
156568
156567
156567
156567
156567
156567
156567
156566
156566
156566
156566
156566
156566
156566
156566
156566
156565
156565
156565
156564
156564
156563
156563
156562
156562
156561
156561
156560
156560
156559
156559
156559
156559
156558
156558
156558
156558
156557
156557
156557
156556
156556
156556
156555
156555
156555
156554
156554
156554
156553
156553
156553
156553
156553
156552
156552
156552
156552
156551
156551
156551
156550
156550
156550
156550
156549
156549
156548
156548
156548
156548
156548
156547
156547
156546
156546
156546
156546
156546
156545
156545
156545
156545
156545
156545
156545
156545
156544
156544
156544
156543
156543
156542
156542
156541
156541
156541
156540
156540
156539
156539
156539
156538
156538
156538
156537
156537
156536
156536
156536
156536
156535
156535
156535
156535
156535
156536
156536
156536
156536
156536
156535
156535
156535
156535
156535
156534
156534
156534
156534
156533
156533
156533
156532
156532
156532
156532
156532
156532
156532
156532
156532
156533
156533
156533
156533
156532
156532
156532
156532
156532
156531
156531
156531
156531
156531
156530
156530
156530
156529
156529
156529
156529
156528
156528
156528
156528
156528
156529
156529
156529
156529
156529
156528
156528
156528
156528
156528
156528
156528
156528
156528
156528
156529
156529
156529
156529
156529
156530
156530
156531
156531
156531
156531
156531
156532
156532
156532
156532
156532
156532
156532
156533
156533
156533
156534
156534
156534
156534
156534
156534
156534
156534
156534
156534
156534
156534
156535
156535
156535
156535
156536
156536
156536
156536
156536
156536
156536
156536
156536
156536
156536
156536
156536
156535
156535
156535
156536
156536
156536
156536
156537
156537
156537
156538
156538
156539
156539
156539
156540
156540
156540
156541
156541
156541
156542
156542
156542
156542
156542
156542
156542
156542
156542
156542
156542
156542
156542
156542
156542
156542
156542
156542
156542
156543
156543
156543
156543
156543
156543
156543
156543
156543
156543
156543
156543
156543
156543
156543
156544
156544
156544
156544
156544
156545
156545
156545
156545
156546
156546
156546
156546
156546
156546
156546
156546
156546
156546
156547
156547
156547
156547
156547
156547
156547
156547
156547
156546
156546
156546
156546
156546
156545
156546
156546
156546
156545
156545
156545
156567
156569
156564
156567
156560
156563
156551
156556
156541
156541
156530
156527
156515
156511
156496
156490
156476
156460
156454
156430
156422
156398
156381
156364
156338
156321
156292
156266
156240
156222
156187
156162
156133
156100
156076
156045
156014
155985
155958
155930
155904
155878
155854
155830
155808
155789
155774
155760
155748
155736
155727
155721
155714
155709
155707
155704
155703
155704
155705
155707
155711
155715
155720
155723
155729
155733
155738
155742
155747
155750
155753
155755
155757
155759
155761
155762
155763
155763
155764
155764
155765
155765
155765
155765
155765
155764
155764
155763
155762
155761
155759
155758
155756
155755
155753
155751
155750
155748
155746
155744
155743
155741
155740
155738
155737
155736
155735
155733
155732
155731
155729
155728
155727
155726
155724
155723
155721
155720
155719
155717
155716
155714
155714
155713
155712
155712
155711
155710
155709
155708
155708
155706
155706
155704
155704
155703
155702
155701
155700
155699
155698
155698
155697
155696
155695
155694
155693
155693
155692
155691
155690
155690
155689
155688
155688
155687
155687
155687
155686
155686
155685
155685
155684
155684
155684
155684
155684
155683
155683
155683
155683
155683
155682
155682
155682
155681
155681
155680
155680
155679
155679
155678
155678
155678
155678
155677
155677
155677
155677
155676
155676
155676
155676
155676
155676
155676
155676
155675
155675
155675
155675
155674
155674
155673
155673
155673
155672
155671
155671
155670
155670
155669
155669
155668
155668
155668
155668
155668
155667
155667
155667
155667
155667
155666
155666
155666
155665
155665
155664
155664
155664
155663
155663
155663
155663
155663
155662
155662
155662
155662
155662
155661
155661
155660
155660
155660
155660
155659
155659
155658
155658
155658
155658
155658
155657
155657
155656
155656
155656
155656
155656
155655
155655
155655
155655
155655
155655
155654
155655
155654
155654
155653
155653
155653
155653
155652
155652
155651
155651
155650
155650
155650
155649
155649
155648
155648
155648
155647
155647
155646
155646
155646
155646
155646
155645
155645
155645
155645
155645
155645
155645
155645
155645
155645
155645
155645
155645
155645
155644
155644
155644
155643
155643
155643
155642
155642
155642
155642
155642
155642
155642
155642
155642
155642
155642
155642
155642
155642
155642
155642
155642
155642
155642
155641
155641
155641
155641
155641
155641
155640
155640
155640
155639
155639
155639
155639
155639
155639
155638
155638
155638
155638
155638
155638
155638
155638
155638
155639
155639
155638
155638
155638
155638
155638
155638
155638
155638
155639
155639
155639
155640
155640
155640
155640
155640
155641
155641
155641
155641
155641
155642
155642
155642
155642
155643
155643
155643
155643
155643
155644
155644
155644
155644
155644
155644
155644
155644
155644
155644
155644
155645
155645
155645
155645
155645
155645
155646
155646
155646
155646
155646
155646
155646
155646
155645
155645
155645
155645
155645
155646
155646
155646
155646
155646
155647
155647
155647
155648
155648
155648
155649
155649
155649
155650
155650
155650
155651
155651
155651
155651
155652
155652
155652
155652
155652
155652
155651
155651
155651
155651
155651
155652
155652
155652
155652
155652
155652
155652
155653
155653
155653
155653
155653
155653
155652
155652
155652
155652
155653
155653
155653
155654
155653
155654
155654
155654
155654
155655
155655
155655
155655
155655
155655
155656
155656
155656
155656
155656
155656
155656
155656
155656
155656
155657
155657
155657
155657
155657
155657
155656
155656
155656
155656
155655
155655
155655
155655
155655
155655
155655
155655
155655
155649
155647
155652
155643
155648
155638
155639
155632
155625
155624
155611
155612
155596
155595
155578
155575
155556
155547
155533
155515
155504
155480
155469
155441
155429
155400
155379
155354
155328
155307
155274
155244
155223
155189
155161
155136
155107
155076
155047
155019
154992
154968
154946
154924
154901
154882
154866
154852
154839
154830
154819
154813
154810
154806
154805
154803
154802
154804
154807
154810
154814
154819
154824
154829
154834
154839
154844
154849
154853
154857
154860
154863
154866
154868
154870
154871
154873
154873
154874
154875
154875
154876
154876
154876
154876
154876
154875
154875
154874
154873
154872
154870
154869
154867
154866
154864
154862
154860
154858
154857
154855
154854
154852
154851
154850
154848
154847
154846
154844
154843
154842
154841
154840
154839
154837
154836
154834
154833
154831
154830
154829
154827
154827
154826
154825
154825
154824
154824
154823
154822
154821
154820
154819
154818
154817
154815
154814
154813
154813
154812
154811
154810
154810
154809
154808
154807
154807
154806
154805
154804
154804
154803
154803
154802
154802
154801
154801
154800
154800
154799
154799
154799
154799
154798
154798
154798
154798
154797
154797
154797
154796
154796
154796
154795
154795
154795
154794
154794
154793
154793
154793
154792
154792
154792
154792
154791
154791
154791
154791
154790
154790
154790
154790
154790
154789
154789
154789
154789
154789
154789
154788
154788
154788
154787
154787
154786
154786
154785
154784
154784
154784
154783
154783
154782
154782
154782
154782
154781
154781
154781
154781
154780
154780
154780
154779
154779
154779
154779
154778
154778
154777
154777
154777
154777
154777
154777
154777
154776
154776
154776
154775
154775
154774
154774
154774
154774
154773
154773
154773
154772
154772
154772
154771
154771
154771
154771
154770
154770
154770
154770
154769
154769
154769
154769
154769
154769
154769
154769
154768
154768
154768
154767
154766
154766
154766
154766
154765
154765
154765
154764
154764
154764
154763
154763
154762
154762
154762
154762
154761
154761
154761
154760
154760
154759
154759
154759
154759
154759
154759
154759
154759
154759
154759
154758
154758
154758
154758
154758
154757
154757
154757
154757
154756
154756
154756
154756
154756
154756
154756
154756
154755
154755
154755
154755
154755
154756
154756
154755
154755
154755
154755
154755
154755
154755
154755
154755
154755
154754
154755
154754
154754
154753
154753
154753
154753
154753
154752
154752
154752
154752
154752
154752
154752
154753
154753
154753
154753
154753
154752
154753
154753
154753
154752
154753
154752
154752
154753
154753
154754
154754
154753
154754
154754
154754
154754
154755
154755
154755
154755
154755
154755
154755
154755
154756
154756
154756
154756
154757
154757
154757
154757
154758
154758
154758
154758
154758
154758
154758
154758
154758
154758
154759
154759
154759
154759
154759
154759
154759
154760
154760
154760
154760
154760
154760
154760
154760
154759
154759
154759
154759
154760
154760
154760
154761
154761
154762
154762
154762
154763
154763
154763
154763
154763
154763
154764
154764
154764
154764
154765
154765
154765
154766
154766
154766
154766
154765
154766
154766
154765
154765
154765
154765
154765
154765
154766
154766
154766
154766
154766
154766
154766
154766
154766
154766
154766
154766
154766
154767
154767
154767
154767
154767
154768
154768
154768
154767
154768
154768
154768
154769
154769
154769
154769
154769
154770
154770
154770
154770
154770
154770
154770
154770
154770
154770
154770
154770
154770
154770
154770
154770
154770
154769
154769
154769
154769
154769
154769
154769
154769
154769
154769
154769
154732
154731
154731
154729
154727
154722
154723
154714
154715
154703
154701
154690
154686
154673
154668
154653
154643
154633
154614
154605
154583
154570
154551
154529
154513
154487
154468
154446
154421
154391
154364
154337
154308
154281
154250
154227
154200
154169
154137
154110
154081
154058
154036
154015
153994
153976
153959
153945
153934
153925
153917
153911
153908
153905
153903
153905
153903
153906
153910
153914
153919
153924
153929
153935
153940
153946
153952
153957
153962
153966
153970
153973
153977
153979
153982
153984
153985
153986
153987
153988
153989
153990
153990
153990
153991
153991
153991
153990
153990
153989
153987
153986
153985
153983
153982
153980
153978
153976
153975
153973
153971
153969
153968
153967
153965
153964
153963
153962
153961
153960
153959
153958
153957
153956
153954
153953
153951
153950
153948
153947
153945
153945
153944
153944
153943
153942
153941
153941
153940
153939
153938
153937
153936
153935
153933
153932
153931
153930
153930
153929
153928
153928
153927
153926
153925
153924
153924
153923
153922
153922
153921
153920
153920
153919
153919
153918
153918
153918
153917
153917
153916
153916
153916
153915
153916
153915
153915
153915
153915
153914
153914
153914
153913
153913
153912
153912
153912
153912
153912
153911
153911
153910
153910
153910
153909
153909
153909
153909
153908
153908
153908
153908
153907
153907
153907
153907
153906
153906
153906
153906
153905
153905
153905
153905
153904
153904
153903
153902
153902
153901
153901
153900
153900
153900
153900
153899
153899
153899
153899
153898
153898
153898
153898
153898
153897
153897
153897
153897
153896
153896
153895
153895
153894
153894
153894
153894
153894
153894
153893
153893
153893
153893
153892
153891
153891
153891
153890
153890
153890
153889
153889
153889
153888
153888
153888
153888
153888
153888
153888
153887
153887
153887
153886
153886
153886
153886
153886
153886
153886
153885
153885
153885
153884
153884
153884
153884
153883
153883
153882
153882
153882
153881
153881
153881
153880
153880
153879
153879
153879
153878
153878
153878
153878
153878
153877
153877
153877
153877
153877
153876
153877
153876
153876
153875
153875
153875
153875
153875
153875
153874
153874
153874
153874
153873
153873
153873
153873
153873
153873
153873
153873
153873
153873
153873
153873
153873
153873
153873
153873
153872
153873
153873
153873
153873
153872
153872
153872
153872
153872
153872
153872
153871
153871
153871
153871
153870
153870
153870
153870
153870
153870
153870
153870
153870
153870
153870
153870
153870
153870
153871
153871
153871
153871
153871
153871
153870
153871
153871
153872
153871
153872
153872
153872
153872
153872
153872
153872
153873
153873
153873
153873
153873
153873
153874
153874
153874
153874
153875
153875
153875
153875
153876
153876
153876
153876
153876
153876
153876
153876
153876
153876
153876
153876
153876
153877
153877
153877
153877
153877
153877
153877
153877
153877
153877
153877
153877
153877
153877
153877
153878
153878
153878
153878
153878
153879
153880
153880
153880
153881
153881
153881
153881
153881
153881
153881
153882
153882
153882
153882
153882
153883
153883
153883
153883
153883
153883
153883
153883
153883
153883
153883
153883
153883
153883
153883
153883
153884
153884
153884
153884
153884
153884
153884
153883
153884
153884
153884
153884
153884
153884
153885
153885
153885
153886
153886
153886
153886
153886
153886
153886
153887
153887
153886
153887
153887
153887
153887
153887
153888
153888
153888
153888
153888
153888
153888
153888
153888
153888
153888
153887
153887
153887
153887
153887
153887
153887
153886
153887
153887
153886
153886
153886
153818
153816
153814
153813
153810
153806
153805
153797
153797
153787
153784
153774
153768
153757
153750
153737
153728
153716
153699
153688
153670
153655
153636
153618
153598
153576
153552
153528
153503
153481
153450
153429
153396
153373
153346
153319
153290
153260
153228
153204
153177
153149
153129
153109
153087
153070
153055
153041
153029
153022
153015
153010
153008
153004
153004
153004
153007
153010
153014
153019
153022
153031
153037
153043
153050
153056
153062
153069
153074
153078
153083
153087
153090
153094
153097
153100
153102
153103
153104
153106
153107
153107
153108
153108
153109
153109
153108
153109
153108
153108
153107
153106
153104
153103
153101
153099
153097
153095
153094
153092
153090
153089
153088
153086
153085
153084
153083
153082
153081
153080
153079
153078
153077
153076
153074
153073
153071
153070
153069
153068
153067
153066
153065
153064
153064
153063
153063
153062
153061
153060
153058
153057
153056
153055
153054
153054
153052
153051
153051
153050
153049
153049
153047
153046
153046
153045
153044
153043
153043
153042
153042
153041
153040
153040
153040
153039
153039
153039
153038
153038
153038
153037
153038
153037
153037
153037
153036
153036
153035
153035
153035
153035
153034
153034
153034
153034
153034
153034
153033
153033
153033
153032
153032
153032
153031
153031
153031
153031
153030
153029
153029
153029
153029
153028
153028
153028
153027
153027
153027
153027
153026
153026
153025
153025
153025
153025
153024
153023
153023
153022
153022
153021
153021
153021
153021
153020
153020
153020
153019
153019
153019
153019
153019
153019
153019
153019
153018
153018
153017
153017
153017
153016
153016
153016
153015
153015
153015
153015
153014
153014
153014
153013
153013
153013
153012
153011
153011
153011
153011
153011
153010
153010
153010
153010
153009
153009
153009
153009
153009
153008
153008
153008
153008
153007
153007
153007
153007
153007
153006
153006
153006
153006
153005
153006
153005
153005
153004
153004
153003
153003
153003
153003
153002
153002
153001
153001
153001
153000
153000
153000
153000
152999
152999
153000
152998
152998
152998
152998
152998
152997
152997
152997
152997
152996
152996
152996
152996
152996
152996
152996
152996
152995
152995
152994
152994
152994
152994
152994
152995
152994
152994
152994
152994
152993
152994
152994
152994
152993
152993
152993
152993
152993
152993
152994
152993
152993
152993
152993
152993
152993
152993
152993
152992
152992
152992
152992
152992
152992
152992
152992
152991
152991
152992
152991
152991
152992
152992
152992
152992
152992
152992
152992
152992
152992
152992
152992
152992
152993
152993
152993
152993
152993
152993
152992
152993
152993
152994
152994
152994
152994
152994
152994
152995
152995
152996
152996
152996
152996
152996
152996
152996
152997
152997
152997
152997
152997
152997
152997
152998
152998
152998
152998
152998
152998
152998
152998
152998
152999
152998
152998
152999
152999
152999
152999
152999
152998
152998
152999
152999
152999
153000
153000
153000
153000
153001
153002
153002
153001
153002
153002
153002
153001
153002
153002
153002
153003
153003
153003
153003
153004
153004
153004
153004
153004
153004
153004
153004
153004
153004
153004
153004
153004
153004
153005
153005
153005
153005
153005
153005
153005
153005
153005
153005
153005
153005
153005
153005
153006
153006
153006
153006
153007
153007
153007
153006
153007
153007
153007
153007
153007
153008
153008
153008
153008
153008
153008
153008
153008
153009
153009
153009
153009
153009
153009
153009
153009
153008
153008
153008
153008
153008
153008
153008
153008
153008
153008
153008
153008
153008
153008
153008
153007
152902
152899
152902
152894
152896
152891
152888
152884
152876
152876
152864
152861
152848
152845
152830
152825
152812
152799
152789
152769
152760
152740
152724
152707
152685
152665
152641
152621
152592
152569
152548
152514
152492
152465
152439
152404
152372
152348
152320
152298
152274
152247
152225
152202
152182
152165
152150
152137
152124
152116
152112
152108
152106
152106
152108
152108
152110
152116
152123
152131
152134
152140
152149
152155
152161
152168
152174
152181
152187
152193
152198
152203
152207
152210
152214
152217
152220
152222
152224
152226
152227
152227
152228
152229
152230
152231
152230
152231
152230
152230
152229
152228
152227
152225
152224
152222
152220
152219
152217
152215
152214
152212
152211
152210
152209
152208
152206
152206
152204
152203
152202
152201
152200
152199
152198
152197
152195
152194
152193
152193
152192
152190
152189
152189
152188
152187
152186
152185
152184
152183
152182
152181
152180
152179
152178
152177
152177
152176
152175
152174
152173
152173
152172
152171
152170
152169
152168
152168
152167
152167
152166
152166
152165
152165
152164
152164
152164
152163
152163
152163
152163
152162
152162
152162
152161
152161
152161
152160
152160
152159
152160
152160
152159
152159
152159
152159
152159
152159
152159
152158
152158
152158
152157
152157
152157
152156
152156
152156
152155
152154
152154
152154
152153
152153
152152
152152
152152
152152
152151
152151
152151
152151
152150
152150
152150
152149
152148
152148
152148
152147
152147
152146
152147
152146
152146
152145
152145
152145
152144
152144
152144
152143
152143
152143
152144
152143
152143
152143
152143
152142
152142
152142
152141
152141
152140
152140
152140
152140
152139
152139
152138
152138
152138
152138
152137
152137
152136
152136
152135
152135
152135
152135
152135
152135
152135
152135
152135
152134
152134
152134
152133
152132
152132
152132
152132
152132
152131
152132
152131
152130
152130
152131
152131
152130
152130
152129
152129
152128
152128
152127
152127
152127
152127
152127
152126
152126
152126
152125
152125
152125
152125
152125
152124
152124
152123
152123
152123
152122
152122
152122
152122
152121
152121
152121
152121
152121
152120
152120
152120
152121
152120
152120
152120
152120
152119
152120
152120
152119
152120
152119
152119
152119
152118
152119
152118
152118
152118
152118
152118
152118
152117
152118
152118
152118
152118
152117
152117
152118
152118
152117
152116
152117
152117
152117
152116
152116
152116
152117
152116
152117
152117
152117
152117
152117
152117
152117
152117
152117
152117
152117
152117
152117
152117
152117
152117
152117
152116
152117
152117
152118
152117
152118
152117
152117
152117
152118
152118
152118
152118
152118
152119
152119
152119
152119
152120
152120
152121
152121
152121
152121
152121
152122
152122
152122
152122
152123
152123
152123
152123
152123
152122
152123
152123
152123
152123
152123
152123
152124
152124
152123
152124
152124
152124
152124
152124
152124
152123
152123
152124
152124
152124
152125
152126
152126
152126
152126
152127
152127
152127
152128
152128
152127
152127
152127
152127
152128
152128
152128
152128
152128
152128
152128
152128
152128
152129
152129
152129
152129
152129
152129
152129
152129
152129
152130
152129
152130
152129
152129
152129
152129
152129
152129
152129
152129
152130
152130
152131
152131
152131
152131
152131
152130
152131
152131
152131
152131
152131
152132
152132
152132
152133
152133
152133
152133
152132
152132
152133
152133
152134
152134
152133
152133
152133
152134
152133
152133
152132
152131
152133
152133
152133
152133
152133
152133
152133
152132
152133
152133
152133
152133
152132
152132
151985
151987
151982
151986
151977
151982
151968
151973
151961
151960
151953
151944
151939
151928
151920
151908
151899
151884
151875
151859
151844
151830
151808
151798
151769
151756
151734
151712
151689
151654
151642
151605
151583
151553
151522
151496
151461
151439
151419
151391
151369
151343
151316
151295
151279
151259
151245
151231
151221
151212
151210
151208
151208
151209
151209
151217
151220
151223
151231
151241
151251
151254
151261
151267
151274
151281
151288
151296
151303
151309
151316
151322
151327
151331
151334
151338
151341
151343
151347
151348
151350
151351
151352
151353
151354
151355
151356
151356
151356
151355
151354
151354
151352
151351
151349
151348
151346
151345
151343
151342
151340
151340
151338
151337
151336
151335
151333
151333
151331
151330
151329
151327
151327
151325
151325
151324
151324
151323
151321
151321
151319
151318
151317
151317
151315
151314
151313
151312
151311
151310
151310
151309
151308
151307
151307
151305
151304
151303
151302
151301
151300
151300
151299
151299
151298
151297
151296
151296
151295
151295
151294
151294
151293
151293
151292
151292
151292
151291
151291
151290
151289
151290
151289
151289
151288
151289
151287
151288
151287
151288
151288
151288
151288
151288
151288
151288
151287
151287
151288
151287
151287
151287
151286
151286
151285
151285
151285
151285
151284
151283
151282
151282
151281
151280
151280
151280
151280
151280
151279
151279
151278
151278
151278
151278
151278
151277
151277
151277
151276
151276
151276
151275
151275
151273
151274
151273
151273
151272
151272
151272
151272
151272
151272
151272
151272
151272
151272
151271
151271
151271
151271
151271
151270
151269
151269
151269
151268
151268
151267
151267
151266
151266
151266
151265
151265
151265
151265
151264
151264
151264
151264
151263
151263
151263
151263
151263
151263
151263
151262
151262
151261
151260
151260
151260
151259
151259
151259
151259
151259
151259
151259
151258
151258
151258
151258
151257
151257
151257
151257
151256
151256
151255
151255
151255
151255
151254
151254
151254
151253
151254
151254
151254
151253
151252
151252
151252
151251
151250
151250
151250
151250
151250
151249
151249
151249
151249
151249
151248
151248
151248
151248
151249
151248
151247
151246
151247
151247
151246
151246
151247
151247
151247
151247
151247
151247
151247
151246
151246
151246
151247
151247
151246
151246
151246
151245
151245
151245
151246
151245
151246
151245
151245
151245
151245
151246
151245
151245
151245
151245
151245
151245
151245
151245
151244
151245
151245
151245
151245
151245
151245
151246
151246
151246
151245
151246
151246
151245
151245
151245
151245
151245
151244
151245
151246
151246
151246
151246
151246
151246
151246
151247
151248
151248
151248
151248
151249
151248
151249
151249
151249
151250
151250
151250
151251
151251
151252
151251
151251
151251
151251
151251
151251
151251
151251
151252
151252
151252
151251
151252
151251
151252
151252
151252
151252
151252
151252
151252
151252
151253
151253
151253
151254
151254
151255
151255
151255
151256
151256
151256
151256
151256
151256
151256
151255
151256
151256
151256
151256
151256
151256
151256
151256
151256
151256
151256
151257
151256
151257
151257
151257
151257
151257
151257
151257
151257
151258
151257
151258
151257
151257
151257
151257
151257
151258
151258
151258
151259
151259
151259
151259
151258
151258
151259
151259
151259
151259
151259
151260
151260
151261
151261
151260
151261
151261
151261
151261
151261
151262
151262
151262
151262
151262
151262
151262
151262
151261
151261
151260
151261
151261
151261
151261
151261
151262
151261
151261
151261
151261
151261
151261
151261
151261
151074
151074
151070
151072
151068
151066
151063
151055
151055
151044
151044
151032
151029
151014
151011
150995
150987
150976
150958
150951
150929
150919
150901
150883
150865
150842
150824
150798
150780
150750
150724
150702
150667
150644
150612
150591
150569
150535
150515
150484
150457
150433
150409
150394
150379
150357
150341
150329
150319
150313
150309
150307
150310
150312
150315
150324
150330
150334
150342
150351
150362
150367
150374
150382
150388
150395
150404