/*--------------------------------*- C++ -*----------------------------------*\
| =========                 |                                                 |
| \\      /  F ield         | OpenFOAM: The Open Source CFD Toolbox           |
|  \\    /   O peration     | Version:  v2012                                 |
|   \\  /    A nd           | Website:  www.openfoam.com                      |
|    \\/     M anipulation  |                                                 |
\*---------------------------------------------------------------------------*/
FoamFile
{
    version     2.0;
    format      ascii;
    class       volScalarField;
    location    "250";
    object      p_rgh;
}
// * * * * * * * * * * * * * * * * * * * * * * * * * * * * * * * * * * * * * //

dimensions      [1 -1 -2 0 0 0 0];


internalField   nonuniform List<scalar> 
65536
(
58870.7
58868.8
58869.5
58864.9
58864.7
58858.8
58857.8
58851.5
58847.7
58841.2
58834.7
58827.2
58819.1
58809.8
58799.7
58787.8
58774.9
58762.7
58746.6
58732.7
58714.5
58697
58678.2
58656.2
58636.6
58611
58588.3
58562.5
58537.4
58507.7
58480.1
58449
58420
58390.2
58357.9
58329.2
58298.9
58268.8
58240
58212.1
58184.6
58158.6
58134.5
58111.7
58088.7
58067.7
58049
58031.8
58016.4
58004.4
57993.6
57985.7
57979.1
57973.3
57967.1
57964.3
57962.2
57961.2
57961.5
57962.7
57964.8
57967.4
57970.4
57973.6
57977.3
57980.8
57984.6
57988.2
57991.3
57994
57996.3
57997.9
57999.2
58000.2
58001
58001.4
58001.9
58002.2
58002.4
58002.4
58002.5
58002.4
58002.3
58002
58001.6
58001
58000.2
57999.2
57998.2
57996.9
57995.5
57994
57992.4
57990.7
57989.1
57987.4
57985.6
57983.8
57982
57980.4
57978.8
57977.3
57975.9
57974.4
57973
57971.5
57970.2
57968.8
57967.5
57966
57964.7
57963.2
57961.8
57960.3
57958.9
57957.5
57956.1
57954.7
57953.4
57952
57950.7
57949.4
57948.3
57947.3
57946.4
57945.5
57944.8
57944
57943.4
57942.6
57941.9
57940.9
57940
57939
57938.1
57937.1
57936.2
57935.3
57934.5
57933.6
57932.9
57932.1
57931.3
57930.4
57929.6
57928.8
57928
57927.2
57926.3
57925.5
57924.8
57924
57923.4
57922.7
57922
57921.4
57920.8
57920.3
57919.8
57919.3
57918.9
57918.6
57918.3
57918.1
57917.9
57917.8
57917.6
57917.4
57917.2
57917
57916.8
57916.5
57916.2
57915.7
57915.3
57914.7
57914.2
57913.6
57913.1
57912.5
57912.1
57911.7
57911.3
57910.9
57910.7
57910.4
57910.3
57910
57910
57909.8
57909.7
57909.7
57909.6
57909.6
57909.5
57909.5
57909.3
57909.2
57909
57908.8
57908.5
57908.1
57907.7
57907.2
57906.7
57906.3
57905.8
57905.2
57904.6
57904.1
57903.5
57903.1
57902.7
57902.4
57902.1
57901.9
57901.6
57901.4
57901.1
57900.9
57900.6
57900.4
57900.1
57899.7
57899.3
57898.9
57898.5
57898.2
57897.8
57897.5
57897.3
57897
57896.8
57896.6
57896.4
57896.1
57895.9
57895.7
57895.3
57895.1
57894.8
57894.5
57894.2
57893.9
57893.7
57893.5
57893.2
57892.9
57892.6
57892.2
57891.8
57891.5
57891.2
57891
57890.7
57890.2
57889.9
57889.6
57889.3
57889.1
57889
57888.8
57888.6
57888.5
57888.4
57888.3
57888.2
57888.1
57888
57887.7
57887.5
57887.2
57886.9
57886.5
57886.1
57885.6
57885.1
57884.5
57884
57883.5
57883.1
57882.7
57882.3
57882
57881.6
57881.4
57881
57880.7
57880.3
57879.9
57879.5
57879.1
57878.9
57878.7
57878.6
57878.5
57878.5
57878.5
57878.6
57878.8
57878.9
57879
57879
57879
57878.9
57878.8
57878.6
57878.5
57878.1
57877.9
57877.5
57877.2
57876.8
57876.5
57876.1
57875.9
57875.6
57875.6
57875.5
57875.4
57875.4
57875.3
57875.4
57875.5
57875.7
57875.8
57875.9
57875.9
57875.9
57875.8
57875.8
57875.5
57875.3
57874.9
57874.6
57874.2
57874
57873.7
57873.5
57873.1
57872.9
57872.5
57872.3
57872
57871.8
57871.7
57871.6
57871.6
57871.5
57871.6
57871.6
57871.6
57871.5
57871.5
57871.4
57871.5
57871.4
57871.5
57871.4
57871.4
57871.2
57871.2
57871.1
57871.2
57871.1
57871.2
57871.3
57871.5
57871.8
57872.1
57872.4
57872.7
57873
57873.4
57873.7
57874
57874.3
57874.5
57874.7
57874.9
57875.1
57875.2
57875.4
57875.5
57875.7
57875.9
57876.2
57876.4
57876.7
57876.9
57877.1
57877.1
57877.2
57877.1
57877.1
57877.1
57877.1
57877.2
57877.4
57877.5
57877.8
57878.1
57878.4
57878.6
57878.9
57878.9
57879.1
57879.2
57879.3
57879.3
57879.2
57879.1
57879
57878.9
57878.7
57878.7
57878.5
57878.5
57878.5
57878.5
57878.6
57878.7
57878.9
57879.2
57879.6
57880
57880.3
57880.7
57881.1
57881.5
57881.9
57882.3
57882.8
57883.1
57883.5
57883.9
57884.3
57884.7
57885
57885.2
57885.4
57885.5
57885.5
57885.4
57885.3
57885.1
57885
57884.9
57884.9
57884.8
57884.9
57884.8
57885
57885.1
57885.2
57885.4
57885.6
57885.8
57886
57886.2
57886.2
57886.2
57886.1
57885.9
57885.8
57885.7
57885.7
57885.7
57885.9
57886
57886.3
57886.5
57886.7
57886.9
57887.1
57887.3
57887.5
57887.9
57888.1
57888.4
57888.6
57888.8
57889
57889.1
57889.2
57889.3
57889.4
57889.5
57889.5
57889.6
57889.7
57889.9
57890
57890.2
57890.3
57890.4
57890.3
57890.3
57890
57889.8
57889.5
57889.2
57889
57888.9
57888.8
57888.8
57888.7
57888.8
57888.7
57888.7
57888.6
57888.6
58863.5
58864.7
58860.1
58862.6
58856.6
58856.2
58851.1
58847.3
58844.4
58833.3
58832.2
58818.8
58816.4
58801.9
58796.7
58780.4
58771.6
58757.4
58741.9
58729.3
58708.7
58694.5
58671
58654.8
58629.2
58609.2
58582.5
58556.5
58531.8
58502.6
58474.8
58447.8
58413.1
58385.7
58355
58323
58294.8
58265.1
58235.6
58207.6
58180.2
58154.2
58128.1
58104
58081.5
58062.1
58043.7
58027.8
58012.1
57998.7
57988.4
57979.7
57972.2
57968.2
57964.1
57958.6
57956.7
57955
57955.5
57957
57958.9
57961.2
57964.1
57967.5
57971.1
57974.7
57978.5
57982
57985.1
57987.6
57989.8
57991.6
57993.1
57994
57994.9
57995.5
57996.2
57996.4
57996.6
57996.7
57996.9
57997
57997
57996.7
57996.4
57995.7
57995.2
57994
57993
57991.8
57990.5
57989
57987.5
57985.9
57984.2
57982.6
57980.7
57978.9
57977.1
57975.3
57973.7
57972.2
57970.7
57969.2
57967.9
57966.5
57965
57963.6
57962.4
57961.1
57959.8
57958.4
57957
57955.6
57954.1
57952.6
57951.2
57949.9
57948.5
57947
57945.7
57944.5
57943.5
57942.5
57941.6
57940.8
57940.1
57939.4
57938.9
57938
57937.2
57936.3
57935.5
57934.3
57933.2
57932.2
57931.3
57930.3
57929.6
57928.7
57928
57927.1
57926.5
57925.7
57924.9
57924.1
57923.3
57922.5
57921.6
57920.8
57920
57919.3
57918.7
57918
57917.4
57916.7
57916.2
57915.6
57915.2
57914.7
57914.4
57913.8
57913.8
57913.5
57913.3
57913.1
57913
57912.8
57912.7
57912.4
57912.1
57911.7
57911.3
57910.8
57910.3
57909.8
57909.4
57908.9
57908.3
57907.9
57907.5
57907
57906.7
57906.3
57906
57905.7
57905.6
57905.3
57905.3
57905.1
57905.1
57905
57904.9
57905
57904.7
57904.7
57904.6
57904.5
57904.3
57904.1
57903.9
57903.4
57903.1
57902.6
57902.1
57901.6
57901.1
57900.6
57900
57899.4
57898.9
57898.4
57898.2
57897.9
57897.6
57897.4
57897.1
57896.8
57896.5
57896.2
57896.1
57895.7
57895.5
57895
57894.7
57894.3
57893.9
57893.6
57893.2
57892.9
57892.5
57892.3
57892.1
57892
57891.8
57891.6
57891.2
57891.1
57890.6
57890.5
57890.1
57889.8
57889.4
57889.2
57889
57888.7
57888.5
57888.2
57887.7
57887.4
57887
57886.8
57886.5
57886.2
57886
57885.6
57885.1
57884.8
57884.6
57884.5
57884.3
57884.2
57883.9
57883.7
57883.6
57883.6
57883.6
57883.5
57883.5
57883.1
57882.9
57882.6
57882.3
57881.9
57881.4
57881
57880.3
57879.9
57879.3
57878.9
57878.4
57878.1
57877.6
57877.4
57876.9
57876.7
57876.4
57876.1
57875.7
57875.2
57874.9
57874.6
57874.3
57874.2
57873.9
57873.9
57873.9
57873.9
57873.9
57874.1
57874.1
57874.2
57874.1
57874.1
57874
57873.9
57873.6
57873.6
57873.2
57873
57872.6
57872.4
57872
57871.7
57871.3
57871.2
57871
57870.9
57870.8
57870.5
57870.5
57870.4
57870.5
57870.6
57870.9
57871
57871.1
57871.1
57871.1
57870.9
57870.9
57870.7
57870.6
57870.2
57870
57869.7
57869.4
57869.1
57869.1
57868.6
57868.4
57867.9
57867.6
57867.3
57867.1
57867
57866.8
57866.8
57866.8
57866.9
57866.8
57866.9
57866.9
57866.9
57866.9
57866.9
57866.8
57866.8
57866.6
57866.8
57866.6
57866.6
57866.6
57866.6
57866.6
57866.6
57866.8
57867
57867.2
57867.6
57867.8
57868.2
57868.5
57868.9
57869.2
57869.5
57869.7
57869.8
57870
57870.1
57870.3
57870.3
57870.5
57870.7
57870.9
57871.2
57871.5
57871.8
57872.1
57872.4
57872.6
57872.6
57872.6
57872.6
57872.6
57872.6
57872.6
57872.7
57872.8
57872.9
57873.1
57873.4
57873.7
57873.9
57874.1
57874.2
57874.3
57874.6
57874.6
57874.7
57874.5
57874.4
57874.4
57874.3
57874.1
57874.1
57874
57873.9
57873.9
57873.9
57874
57874.2
57874.3
57874.6
57875
57875.3
57875.8
57876.2
57876.7
57877.1
57877.4
57877.9
57878.1
57878.5
57878.9
57879.3
57879.6
57879.8
57880.3
57880.5
57880.7
57880.8
57880.9
57880.8
57880.7
57880.6
57880.4
57880.3
57880.3
57880.2
57880.2
57880.1
57880.2
57880.2
57880.4
57880.6
57880.9
57881.1
57881.3
57881.6
57881.5
57881.5
57881.4
57881.2
57881.2
57881.1
57881.1
57881.2
57881.2
57881.4
57881.9
57881.9
57882.3
57882.4
57882.6
57882.8
57882.9
57883.3
57883.5
57883.9
57884
57884.2
57884.4
57884.4
57884.5
57884.5
57884.7
57884.8
57884.8
57884.9
57885
57885.2
57885.2
57885.4
57885.5
57885.6
57885.5
57885.7
57885.3
57885.2
57884.8
57884.5
57884.3
57884.2
57884.1
57884
57884
57884.1
57884
57883.9
57883.9
57883.9
58853.5
58855.9
58850.3
58853.5
58846.1
58849.7
58836.9
58841.9
58827.6
58827
58816.4
58812.3
58801
58796.5
58781.4
58774.7
58760.8
58744.3
58738.2
58713.9
58704.6
58680.9
58662.9
58645.8
58618.9
58601.8
58572
58545.9
58519
58499.8
58464.1
58438.1
58407.8
58374.3
58349.7
58317.2
58285
58255.5
58226.6
58197.7
58170.9
58144.3
58118.8
58092.9
58069.7
58049.3
58032.9
58016.7
58003.1
57989.9
57978.9
57970.8
57962.2
57955.2
57951.5
57947
57944.9
57943.9
57943.6
57944.7
57947.1
57949.8
57953
57955.6
57959.5
57963.2
57967
57970.2
57973.5
57976
57978.2
57979.7
57981.4
57982.8
57984
57984.6
57985.2
57985.6
57986
57986.2
57986.6
57986.7
57987
57986.9
57986.7
57986.4
57985.5
57984.8
57983.9
57982.7
57981.4
57980.2
57978.5
57976.9
57975.1
57973.7
57971.7
57969.7
57967.8
57966.3
57964.6
57963
57961.6
57960.2
57958.7
57957.2
57956.4
57955.1
57953.8
57952.6
57951.1
57950.1
57948.5
57947.2
57945.9
57944.5
57942.9
57941.5
57940
57938.6
57937.2
57935.9
57935
57934
57933.6
57932.6
57931.8
57931
57930.3
57929.3
57928.7
57927.4
57926.5
57925.4
57924.5
57923.4
57922.5
57921.4
57920.7
57919.8
57919.2
57918.6
57917.8
57916.9
57916
57915.3
57914.5
57913.8
57913
57911.9
57911.3
57910.7
57910.2
57909.4
57908.8
57908.2
57907.7
57907.5
57906.8
57906.4
57905.7
57905.6
57905.2
57905.1
57904.9
57904.8
57904.5
57904.2
57904.1
57903.8
57903.6
57903.2
57902.9
57902.4
57902.1
57901.6
57901
57900.4
57900.1
57899.5
57899.1
57898.8
57898.6
57898.1
57897.9
57897.7
57897.4
57897.2
57897.1
57896.8
57896.9
57896.7
57896.6
57896.6
57896.7
57896.4
57896.1
57896.1
57895.8
57895.4
57895.2
57895
57894.5
57894
57893.5
57893.1
57892.5
57891.7
57891.2
57890.5
57890.2
57889.8
57889.4
57889.1
57889
57888.7
57888.3
57888.1
57887.8
57887.9
57887.4
57887.4
57887.2
57886.9
57886.5
57886.1
57885.7
57885.4
57884.9
57884.6
57884.3
57883.8
57883.8
57883.6
57883.4
57883.1
57882.7
57882.7
57882.4
57882.2
57881.9
57881.3
57881
57880.8
57880.3
57880.4
57880.1
57879.7
57879.4
57878.7
57878.3
57877.9
57877.8
57877.8
57877.5
57876.9
57876.7
57876.3
57876
57875.9
57875.8
57875.5
57875.5
57875.5
57875.3
57875
57875
57874.8
57875.1
57874.5
57874.3
57873.8
57873.4
57873.2
57872.8
57872.2
57872
57871.4
57870.9
57870.5
57870
57869.7
57869.2
57868.9
57868.6
57868.4
57868
57867.5
57867
57866.5
57866.4
57865.9
57865.9
57865.8
57865.7
57865.4
57865.4
57865.3
57865.5
57865.6
57865.7
57865.6
57865.6
57865.4
57865.3
57865.1
57865.2
57865.1
57864.6
57864.2
57863.7
57863.4
57863
57862.7
57862.5
57862.1
57861.8
57861.9
57861.7
57861.9
57862
57861.9
57861.9
57862.1
57862.3
57862.4
57862.5
57862.4
57862.4
57862.4
57862.5
57862.2
57862.1
57861.8
57861.4
57861.3
57861.1
57861.1
57860.7
57860.4
57860.1
57859.6
57859.4
57859.1
57858.9
57858.7
57858.7
57858.6
57858.5
57858.5
57858.6
57858.4
57858.4
57858.2
57858.2
57858.2
57858.1
57858.5
57858.5
57858.5
57858.3
57858.4
57858.3
57858.4
57858.1
57858.2
57858.4
57858.8
57859.1
57859.2
57859.6
57859.8
57860
57860.3
57860.6
57860.9
57861.1
57861.4
57861.4
57861.5
57861.5
57861.8
57862.1
57862.4
57862.8
57862.8
57863
57863.2
57863.7
57864
57864.3
57864.2
57864.2
57864.2
57864
57864.1
57863.9
57864.2
57864.4
57864.7
57865
57865.2
57865.6
57865.6
57865.7
57865.7
57865.9
57865.9
57866
57866.2
57866
57866
57865.7
57865.6
57865.4
57865.4
57865.4
57865.6
57865.6
57865.8
57865.7
57865.6
57866
57866
57866.6
57867.4
57867.5
57868
57868.2
57868.6
57869.1
57869.3
57869.7
57870.1
57870.3
57870.7
57871.2
57871.6
57871.7
57871.9
57872.3
57872.2
57872.4
57872.3
57872.1
57871.9
57871.7
57871.4
57871.5
57871.5
57871.6
57871.6
57871.7
57871.8
57872
57872.3
57872.5
57872.7
57872.8
57873
57873
57872.9
57872.9
57872.8
57872.5
57872.5
57872.5
57872.5
57873.1
57873.3
57873.5
57873.9
57873.8
57874
57874
57874.4
57874.6
57875
57875.3
57875.7
57875.7
57875.7
57876
57876.1
57876.3
57876.2
57876.3
57876.3
57876.5
57876.5
57876.6
57876.7
57876.8
57877
57877.2
57877.5
57877.5
57877.5
57877.1
57876.7
57876.2
57876
57875.8
57875.6
57875.7
57875.8
57875.7
57875.9
57875.5
57875.6
57875.3
57875.1
58840.7
58838.6
58843.5
58834.5
58839.2
58829.6
58829.7
58823
58815.7
58814.9
58801.7
58802
58786.3
58784.8
58767.6
58764
58745.2
58734.8
58721.6
58702.6
58690.6
58665.9
58654.7
58626.3
58613.5
58584
58561.9
58537.2
58509.1
58487
58452.6
58421.7
58399.1
58363.9
58334.2
58308.1
58277.4
58244.2
58214.1
58184.9
58155.2
58130.8
58106.3
58081.6
58057
58035.6
58018.5
58001.7
57986.2
57973.7
57960.1
57951.9
57946.6
57940.3
57936.3
57931.7
57928.2
57928.6
57928.5
57929.4
57931
57934.1
57937.6
57940.4
57943.4
57946.9
57951.2
57954.2
57956.6
57959.3
57961.5
57963.9
57965
57966.5
57968.1
57968.8
57970.2
57970.6
57971.3
57971.6
57972.3
57973
57973.2
57973.4
57973
57972.6
57972.1
57971.8
57970.6
57969.7
57968.6
57967.5
57966.2
57964.7
57963.2
57962.1
57959.5
57957.5
57955.9
57953.6
57951.9
57950.3
57948.8
57947.3
57946.2
57944.9
57943.4
57942.2
57941.1
57940.1
57939.3
57938.3
57936.5
57935.1
57933.5
57932.1
57930.6
57929.4
57927.7
57926
57924.9
57923.2
57922.7
57922.2
57921.3
57920.4
57920
57919.5
57919.1
57917.8
57916.6
57915.5
57914.5
57913.3
57912.2
57910.8
57909.8
57908.9
57908.2
57907.2
57906.8
57906
57906
57904.9
57904.3
57903.3
57902.7
57902.1
57901.3
57900.7
57899.5
57898.6
57898.6
57897.6
57896.9
57896.3
57895.9
57895.6
57895.5
57894.8
57894.6
57894.5
57894.1
57893.8
57893.6
57893.3
57893.1
57893
57892.4
57892.5
57891.8
57891.2
57890.8
57890.3
57890.1
57889.9
57889.4
57889
57888.1
57887.9
57887.6
57887.2
57886.9
57886.5
57886.4
57885.9
57885.7
57885.6
57885.5
57885.5
57885.2
57885.2
57885.2
57884.9
57884.8
57884.6
57884.2
57884.2
57883.9
57884
57883.7
57883.2
57883.2
57882.1
57881.4
57881
57880.5
57879.9
57879.5
57879.2
57878.7
57878.2
57878.2
57877.8
57877.7
57877.7
57877.1
57876.6
57876
57875.6
57875.6
57875.5
57875.9
57875
57874.6
57874.4
57874.1
57874.2
57873.3
57872.8
57872.7
57872.5
57872
57871.9
57872.1
57871.7
57871.6
57871.4
57870.7
57870.6
57870.2
57869.5
57869.1
57868.8
57868.7
57868.4
57868.6
57868
57867.5
57867
57866.6
57866.1
57865.8
57865.7
57866
57865
57864.4
57864.2
57864
57863.8
57863.8
57864
57863.5
57863
57862.9
57863.1
57863.4
57863.4
57863.8
57863
57862.2
57861.6
57860.8
57861
57860.8
57860.5
57859.7
57859.3
57858.9
57858.6
57858.2
57858.3
57857.4
57857.3
57856.8
57856.9
57856.9
57856.1
57855.7
57855.5
57855
57854.5
57854.4
57853.8
57853.9
57853.5
57853.7
57853.7
57853.7
57854
57853.7
57853.6
57853.4
57853.2
57853.1
57853.1
57852.7
57853.1
57852.1
57851.9
57851.6
57851
57850.9
57850.5
57850.3
57850.4
57850.5
57850.4
57850.5
57850.2
57849.9
57849.7
57849.5
57849.9
57850.5
57850.6
57850.4
57850.1
57850.1
57849.9
57850
57850.1
57850.1
57849.8
57849.9
57849.2
57849.2
57849.1
57849.5
57848.7
57848.3
57847.8
57847.7
57847.3
57847.2
57847
57846.8
57846.7
57846.6
57847
57846.6
57846.6
57846.9
57847
57846.8
57846.8
57847
57846.8
57846.8
57846.9
57846.8
57846.8
57846.6
57847.2
57846.6
57846.4
57846.8
57847.1
57847.8
57847.9
57847.7
57847.8
57848.2
57848.9
57849.1
57849.5
57849.5
57849.3
57849.7
57849.6
57849.6
57849.5
57849.7
57850.3
57850.2
57850.5
57850.9
57851.3
57851.8
57852.8
57853
57852.4
57852.3
57852.2
57852
57852.1
57852.3
57852.6
57852.7
57853
57853
57853.5
57854.1
57853.7
57853.7
57853.6
57853.4
57854
57854.5
57854.9
57854.2
57854
57854.2
57854.2
57854.1
57853.8
57853.5
57853.7
57854.3
57854
57854.3
57854.4
57854.6
57855.2
57855.5
57855.9
57856.3
57856.4
57857.4
57857.9
57857.6
57857.9
57857.8
57857.9
57858.5
57859.2
57859.4
57859.6
57860.1
57860.2
57860.4
57860.6
57861.1
57860.7
57860.5
57860
57860.1
57860
57859.9
57859.6
57859.6
57859.6
57859.6
57859.8
57860.1
57860.2
57860.6
57860.6
57861.1
57861.7
57861.1
57860.9
57860.7
57860.2
57860.6
57860.9
57860.9
57861.1
57861.5
57861.5
57862.4
57862.5
57862.5
57862.5
57862.3
57862.1
57862.5
57863.2
57863.4
57864.3
57863.9
57864.2
57864.7
57864.4
57864.5
57864.5
57864.6
57864.8
57864.5
57864.5
57864.6
57865.2
57864.9
57864.9
57864.8
57865.1
57865.3
57865.8
57864.9
57864.9
57864.3
57864
57863.7
57863.8
57863.8
57864.4
57864.3
57864.7
57864.2
57863.6
57863.2
57863.2
58825.7
58824.9
58824.4
58821.8
58819.8
58814.4
58815.9
58805.9
58806.8
58795.2
58792.8
58781.6
58776.8
58763.4
58757.8
58742.7
58732
58722.1
58701.9
58693.1
58670.1
58655.7
58636
58613.1
58596.5
58569.3
58549.6
58528.1
58500.7
58468.6
58440
58411.2
58380.5
58351
58318.5
58295.6
58265.1
58230.9
58197.6
58169
58136.5
58112.9
58087.6
58063.7
58040.1
58017.8
57997.7
57982.4
57967.7
57955.8
57943.3
57934
57929.4
57922.5
57916.2
57913.9
57909.7
57907.9
57909.1
57909.5
57912.1
57914.4
57916.4
57919.2
57921.9
57925.6
57930.2
57933
57935.7
57937.9
57940.5
57942.3
57945
57946.4
57948.7
57950.3
57951.3
57951.6
57951.9
57952.7
57953.6
57955.2
57955.2
57956
57956.2
57955.6
57955.5
57954.6
57954.3
57953.3
57952.2
57951.7
57950.4
57948.7
57946.9
57946.1
57944
57941.8
57940.7
57938.2
57935.8
57933.8
57932.9
57931.2
57929.7
57928.6
57927.7
57926.5
57925.7
57924.8
57924.6
57923.7
57921.4
57920
57919
57917.2
57915.4
57914.7
57912.4
57910.8
57909.3
57909.1
57908.2
57907.4
57907.4
57905.7
57904.6
57904.2
57904.2
57902.3
57901.4
57900.2
57899.3
57897.8
57896.3
57894.9
57894.1
57892.8
57892.6
57891.5
57890.7
57890.9
57891.1
57889.9
57889.4
57888
57887.2
57887.2
57886.7
57886.3
57884.2
57883.5
57883.5
57882.2
57881.8
57881.2
57880.9
57881.5
57881.2
57880.1
57880
57878.9
57879.7
57878.5
57878.5
57878.1
57877.8
57878.4
57878.1
57878.1
57876.7
57876.3
57875.8
57875.4
57875
57875.7
57874.7
57874.4
57874.2
57873.6
57873
57872.7
57872.7
57871.9
57871.1
57871.1
57871.2
57871
57871.3
57870.8
57871.1
57870.4
57870
57870.5
57870.7
57869.8
57869.3
57869.7
57868.7
57868.4
57868.8
57868.1
57868.5
57867.2
57866.7
57866.2
57865.9
57864.5
57864.3
57863.8
57863.6
57863.3
57863.4
57863
57862.9
57862.8
57861.7
57861.3
57861.1
57860.8
57860.8
57860.8
57861.5
57861
57860.2
57860.4
57860.6
57860.5
57859.2
57858.5
57858
57858.3
57857.2
57856.9
57857.2
57856.6
57856.3
57856.6
57855.6
57855.9
57856.1
57854.9
57853.9
57853.2
57853.1
57853.3
57853.6
57852.7
57852.8
57851.3
57850.5
57850.3
57850.3
57850.4
57850.9
57850.1
57849.5
57849.2
57848.9
57849
57849.1
57849.8
57848.6
57848.3
57848.3
57848.1
57848
57848.1
57848.4
57847.3
57847.2
57846.9
57846.4
57847
57845.9
57845.3
57845
57844.6
57844.3
57844.1
57843.6
57844
57842.8
57842.4
57842.3
57842.4
57842.5
57841.3
57840.8
57840
57840.1
57840.4
57840.1
57840.8
57839.8
57839.7
57839.5
57839
57839.1
57839.7
57839.4
57838.8
57839
57838
57837.9
57838.1
57837.3
57837.8
57836.9
57836.3
57836
57836
57835.7
57834.9
57835.3
57835.5
57835.2
57834.9
57835.4
57835
57835.3
57835.3
57835.3
57835.6
57836.3
57836.3
57835.9
57835.2
57835
57835
57835.1
57835
57835.3
57834.9
57834.5
57834.8
57834.8
57834.7
57835.1
57834
57833.8
57832.9
57832.8
57832.9
57833.1
57832.1
57832.1
57831.8
57831.9
57832.3
57832
57832.1
57832.7
57832.2
57831.9
57831.8
57831.6
57831.9
57832.3
57832.9
57832.3
57832.1
57832.5
57833.4
57832.5
57832.4
57832.3
57833
57833.8
57833.3
57833.3
57833.8
57834
57834.6
57834.8
57835.1
57834.5
57834.5
57834.9
57834.2
57834
57834.3
57834.7
57835.9
57835.5
57836.2
57836.6
57836.3
57836.8
57837.9
57837.9
57837.7
57837.2
57837.6
57837.3
57837.6
57837.5
57837.9
57838
57838.8
57839.1
57838.9
57839.3
57838.8
57839
57839.2
57839
57839.7
57839.4
57839.9
57839.1
57839.2
57838.9
57838.9
57838.6
57838.7
57839
57839.1
57839.8
57839.5
57839.5
57839.4
57839.3
57839.7
57840.4
57841.8
57841.5
57842
57842.9
57843.7
57843.3
57843.2
57842.6
57843
57843.5
57844.5
57844.2
57844.8
57845.7
57845.2
57845.7
57845.7
57846.7
57846.1
57845.3
57845.1
57844.8
57844.6
57844.7
57845
57845.1
57844.7
57844.5
57844.5
57844.7
57845.4
57846.2
57846
57846.4
57847.4
57846.5
57845.9
57845.7
57845.3
57845.7
57845.5
57845.9
57846.2
57845.8
57846.6
57848
57848.6
57847.9
57848.2
57848
57848.6
57848.6
57848.5
57848.7
57849.6
57849.2
57849.2
57849.8
57849.2
57849.7
57849.2
57849.7
57850.4
57849.8
57849.5
57849.6
57850.3
57849.7
57849.9
57850
57850
57850.9
57851.2
57850.5
57850.6
57849.6
57849.1
57849
57848.9
57849.4
57850.2
57849.1
57849.7
57848.8
57848.1
57848.2
57847.6
58809.6
58807.8
58805.7
58804.2
58801.3
58797.2
58796.7
58788.1
58787.4
58777.6
58773.8
58763.8
58757.4
58745.5
58738.1
58724.7
58715.4
58702.6
58685.6
58673.5
58654.6
58639
58619.1
58600
58578.5
58554.8
58529.7
58502.1
58477.6
58453.7
58421.6
58397.9
58362.3
58336.9
58307.8
58279.4
58247.4
58213.2
58176.8
58150
58119.9
58088.2
58067
58042.9
58018.2
57995
57976.5
57960.9
57945.4
57934.1
57921.3
57913.2
57907.5
57899.3
57893.7
57887.9
57888
57886.1
57884.2
57885.3
57884.4
57890.6
57892.1
57894.2
57896.9
57899.9
57903.9
57908.3
57910.5
57912.5
57915.1
57917.9
57919.5
57922.7
57925.6
57928.3
57929.3
57929.1
57929.7
57931
57931.7
57931.8
57932.8
57933.5
57935.3
57934.9
57934
57935.3
57934.2
57933.5
57933.4
57933.4
57932.2
57929.6
57927.5
57925
57923.9
57921.2
57919.1
57918.8
57915.9
57914.8
57914.2
57912
57910.8
57909.9
57909.4
57908.7
57907.8
57906
57904.8
57904.7
57902.3
57902
57901.1
57899.1
57897.4
57896.3
57894.7
57893.4
57892.6
57892.5
57890.5
57889.8
57889.8
57888
57886.8
57886.2
57885.4
57883.8
57882.4
57881.5
57880.5
57879.6
57878.1
57877.5
57876.9
57876
57875.3
57874.1
57873.2
57873.1
57872.4
57871.4
57870.1
57869.1
57868.6
57868.4
57868
57865.6
57865.1
57864.2
57863.7
57863.8
57864.2
57863
57862.4
57863.6
57862.3
57862.1
57863.1
57861.7
57863.4
57862.4
57861.6
57860.6
57860.3
57859.9
57858.7
57858.3
57858.6
57858.3
57858.5
57858.4
57858.1
57859
57858
57857.4
57856.8
57856
57855.7
57855.4
57855.8
57855.1
57854.5
57854.6
57854.1
57854.4
57854.9
57853.9
57853.8
57852.9
57852.6
57853.1
57853.2
57851.8
57851.3
57851.9
57850.4
57850.2
57849.8
57849.1
57848
57847.9
57847.6
57848
57847.7
57846.6
57846.2
57846.3
57845.3
57845.6
57845.2
57845.7
57845
57844.2
57844.2
57843.9
57842.7
57842.6
57843.1
57841.9
57842.1
57843.1
57842.6
57843.2
57843.2
57842.5
57840.7
57840.3
57839.8
57839.1
57839.1
57838.9
57838.1
57838.3
57838.9
57838.6
57838
57838.6
57838.1
57836.4
57836.3
57835.2
57834.8
57834.6
57834.1
57834.1
57834.9
57833.3
57832.6
57832.6
57832.5
57832.5
57831.7
57831.4
57831.7
57831
57830.7
57830.3
57830.7
57831.6
57830.6
57830.1
57830.1
57829.6
57830
57829.4
57828.9
57828.9
57828.2
57828.6
57829.2
57829.6
57827.9
57827.9
57827.3
57826.8
57826.8
57826.8
57825.4
57825.8
57824.5
57824.2
57824.8
57825.2
57823.7
57823.2
57823.6
57822.7
57822.5
57822.3
57822.9
57824.4
57822.8
57821.6
57822.1
57821.6
57821.3
57821.6
57821.5
57820.8
57821.6
57820.4
57819.4
57818.1
57818.4
57817.5
57818
57818.6
57818.4
57818
57817.7
57817.4
57817
57816.3
57817.7
57817.3
57818.4
57817.2
57817.8
57816.8
57817.6
57816.6
57817.5
57817.6
57817.6
57816.5
57816.5
57816.8
57816.6
57816.7
57817.1
57817
57817.1
57816.3
57817.2
57817.4
57816.4
57815.9
57815.5
57814.9
57815.1
57815.6
57815.4
57814.3
57814.3
57814.3
57813.9
57813.8
57813.8
57814
57815.5
57815.3
57813.7
57814
57814.2
57814.9
57815.7
57816
57814.9
57814.5
57814.4
57815
57814.2
57815.2
57814.6
57815.1
57816.1
57815.7
57815.4
57816.3
57815.5
57815.9
57816.4
57816.6
57816.6
57816.3
57816.6
57816.2
57815.7
57815.8
57816.6
57817.8
57818.1
57818
57818.3
57817.8
57817.8
57818
57818.6
57819.1
57818.8
57818.9
57819.1
57819.3
57819.2
57819.6
57820.4
57822.2
57822.4
57821.2
57820.6
57820.8
57821.3
57820.9
57821.5
57822.1
57821
57820.7
57821.3
57821
57821.2
57821.6
57821.6
57820.5
57820.1
57820.5
57820.8
57821.7
57822.5
57822.1
57822.2
57822
57823.6
57824.9
57824.1
57823.8
57825
57824
57824.7
57824
57824.2
57823.8
57824.2
57825.1
57826.3
57826.9
57826.7
57827.4
57828
57827.2
57828.3
57828.3
57827.2
57826.7
57826.7
57826.3
57826.6
57826.7
57827.7
57826.8
57826.6
57827.5
57827.4
57827.9
57828.1
57827.6
57827.8
57828.8
57827.9
57827.4
57827.7
57827.9
57827.9
57828.1
57828.2
57829.1
57828.8
57829.6
57829.8
57831
57830
57830.6
57829.5
57830.5
57831.3
57830.6
57829.9
57830.1
57830.9
57831.4
57830.9
57831.5
57832.2
57831.5
57831.8
57831.8
57831.4
57830.9
57831
57830.8
57831.6
57832.2
57831.9
57831.9
57832.5
57831.3
57831.3
57831.1
57831.6
57830.8
57830.7
57831
57831.6
57831.8
57830.5
57830.5
57831.7
57830.8
57830.3
57830.4
58785
58781.6
58784.4
58777.6
58778.9
58773.9
58770.7
58767.1
58758.6
58758.6
58745.8
58742.7
58729.8
58725.4
58710.8
58704.4
58691.3
58677.2
58666.7
58646.5
58636.2
58615
58598
58580.1
58556.4
58535.3
58508.9
58485.2
58456.8
58431.7
58409.3
58373.2
58348.5
58318.8
58289
58249.3
58215.6
58188.9
58156.6
58129.4
58101.6
58070.2
58044.9
58016.9
57991.4
57969.3
57948.8
57934
57917.1
57903.4
57893.2
57880.9
57874
57869.4
57867.4
57860.5
57856.2
57858.9
57859.6
57862
57859.6
57863.3
57866.4
57867.3
57869.2
57870.2
57873.2
57878.1
57879.9
57883.4
57887.3
57890.4
57891.1
57892.9
57895.7
57897.3
57900.9
57902.7
57904.8
57905.1
57906.3
57905.9
57907.1
57907.6
57908.9
57911
57910.4
57912.9
57910.3
57910.2
57909.7
57910.4
57909.5
57907.6
57905.2
57901.7
57899.6
57898.1
57896
57893.7
57893.1
57892.6
57891.6
57890.1
57888.6
57888.5
57886.8
57887.2
57885.9
57883.2
57881
57879.5
57879.2
57879.2
57877.3
57877.4
57875.4
57872.7
57871.9
57872.7
57871.4
57868.6
57868
57868.6
57866.9
57865.3
57864.3
57863.8
57862.3
57861.4
57860.6
57859.9
57858.8
57856.9
57855.8
57855.5
57856.1
57855.4
57853
57851.9
57851.8
57851.9
57850.3
57849.1
57847.4
57846.5
57846.5
57845.9
57844.8
57844.3
57843.7
57843.4
57841.7
57841.9
57843.1
57841.9
57841.3
57841.3
57840.1
57840.4
57842
57841.7
57842.3
57842.4
57840.2
57839.3
57839.6
57837.5
57837.3
57836.5
57837.9
57837.7
57837.9
57838.1
57836.9
57836.1
57837.8
57837.8
57837.7
57835.9
57835.8
57835.4
57835.4
57834.9
57834.6
57834
57834.3
57834
57834.5
57833.6
57833.1
57832.1
57831.1
57831.1
57829.5
57830.4
57829.6
57830.3
57829.1
57828.5
57827.7
57827.7
57826.1
57826.2
57826.6
57827.2
57826
57826.2
57825.4
57826.1
57824.9
57823.9
57824.8
57825.2
57825
57823
57823.6
57823.4
57821.6
57822.1
57822.2
57820.9
57819.7
57819.7
57820.7
57821.1
57820.4
57820
57820.1
57819.5
57819
57819.1
57818.8
57817.2
57816.5
57817
57818
57816.8
57816.2
57816.8
57815.4
57815
57815.6
57814.5
57813.8
57813
57811.4
57811.8
57811.6
57812.4
57812.6
57812.2
57811.6
57810.7
57809.9
57810.5
57810.2
57809.7
57809.9
57809.5
57809.4
57810.2
57809
57809.8
57809.8
57808.9
57809.4
57808.6
57807.3
57807.2
57807
57807.8
57808.3
57807.5
57806.8
57807.8
57807.1
57805.2
57805.5
57805.4
57803.7
57803
57803.4
57803.7
57804.8
57804.4
57802.5
57802.6
57802.7
57803
57802.3
57803.3
57802.7
57802.2
57801
57801.5
57801.3
57800.4
57799.3
57799.2
57799.6
57799.2
57800.3
57799.7
57798.8
57797.1
57796.1
57796.4
57796.6
57798.1
57797
57797.3
57797.5
57797.7
57796.5
57796.8
57796.9
57795.6
57797.2
57796.1
57797
57795.9
57793.9
57794.9
57794.8
57794.8
57795.3
57795.2
57794.6
57795.1
57794.9
57795.2
57795.6
57795.8
57796.5
57794.9
57793.1
57794.3
57794.3
57794.1
57792.9
57793.1
57793.7
57792.6
57792.3
57793
57793.1
57793.5
57792.4
57792.1
57792.3
57793.1
57794.8
57795.2
57793.8
57793.3
57793.9
57794.7
57795.9
57795.6
57794
57793.7
57794.3
57793.1
57792.6
57792.3
57792.5
57794.2
57793.9
57794.8
57794.5
57793.9
57793.7
57794
57794.4
57794.8
57795
57793.8
57793.7
57794.4
57794.9
57795.3
57794.7
57794.7
57796
57795.3
57796
57795.8
57795.7
57796
57797.6
57798.7
57797.9
57798.1
57798
57798.4
57798.6
57798.6
57799.6
57800.7
57799
57799.8
57798.7
57799.4
57800.7
57800
57800.3
57800.4
57799.7
57799.2
57800.9
57800.6
57800.4
57801.7
57801.8
57800.2
57799.8
57799.2
57799.8
57800.5
57801.8
57801.4
57802
57802.9
57803.3
57803.4
57803.4
57803.5
57803.7
57803.5
57803.4
57802.9
57802.5
57802.7
57802.7
57803.6
57805.7
57806.3
57804.9
57806.1
57805.6
57804.9
57804.6
57805.6
57805.3
57805.9
57806.3
57806.4
57806.6
57806.1
57806.6
57805.4
57805.5
57807.3
57806.1
57806.2
57805.8
57806
57806.5
57807.7
57807.1
57806.2
57806
57806.4
57806.9
57807.8
57808.3
57808.5
57808.4
57807.6
57807.6
57806.6
57808.2
57808.9
57808.1
57807.9
57807.9
57809.5
57808.7
57808.5
57810.2
57810.3
57809
57809.4
57809.5
57809.5
57810
57810.2
57810.7
57809.6
57809.2
57809
57809.6
57810.9
57810.2
57809.3
57808.4
57807.7
57810.1
57810.1
57811.7
57810.4
57810.8
57809.7
57808.9
57808
57808.6
57808.6
57810.8
57809.6
57809.9
57810
58751.3
58754
58748.1
58752.7
58743.4
58748.3
58735.3
58739.3
58728.3
58725.2
58719.3
58709.3
58704
58692.2
58684.7
58671.4
58662.3
58646.8
58636.7
58620.1
58603.9
58589.3
58566.1
58554.6
58524.6
58510
58485.8
58462.2
58437.7
58400.6
58386
58346.8
58321.6
58288.9
58253.6
58222.5
58186.2
58160.2
58136.8
58102.7
58076.8
58046
58013.4
57988.2
57966.1
57940.6
57919.2
57897.6
57884.2
57870.5
57861.7
57849.2
57842
57836.5
57830.3
57832.9
57828.4
57826.3
57828.2
57832.1
57836.1
57832.4
57834.9
57833.5
57835.4
57835.6
57838.1
57843.1
57846.2
57849.5
57855.7
57859.8
57860.8
57861.1
57862.7
57865.8
57867.3
57869.7
57874.8
57875.1
57876.7
57876.6
57878.8
57878.7
57879.4
57882.4
57883.4
57884.6
57884.5
57883.4
57882.3
57882.8
57880.5
57880.6
57877.5
57874.5
57872.6
57871.4
57869.1
57867.8
57867.2
57866.4
57865.1
57864.8
57863.8
57863.3
57861.3
57861
57860.1
57857.8
57854.5
57852.3
57853
57852.4
57851.1
57851.7
57849.9
57848.4
57847.3
57848.5
57845.6
57844.5
57843.8
57843.2
57841
57840.3
57839.4
57837.9
57836.3
57836.3
57835.8
57834.2
57833.4
57833.5
57832.4
57830.6
57830.9
57828.1
57827.5
57826.2
57825.6
57825.8
57823.7
57822.8
57822.1
57822.9
57822.3