/*--------------------------------*- C++ -*----------------------------------*\
| =========                 |                                                 |
| \\      /  F ield         | OpenFOAM: The Open Source CFD Toolbox           |
|  \\    /   O peration     | Version:  v2012                                 |
|   \\  /    A nd           | Website:  www.openfoam.com                      |
|    \\/     M anipulation  |                                                 |
\*---------------------------------------------------------------------------*/
FoamFile
{
    version     2.0;
    format      ascii;
    class       surfaceScalarField;
    location    "250";
    object      phi;
}
// * * * * * * * * * * * * * * * * * * * * * * * * * * * * * * * * * * * * * //

dimensions      [1 0 -1 0 0 0 0];
oriented        oriented;


internalField   nonuniform List<scalar> 
130432
(
79.1447
-79.2294
155.148
-77.11
228.71
-73.8051
301.233
-73.9452
374.539
-73.5118
448.052
-75.0952
522.35
-74.6034
595.366
-74.5137
670.642
-75.9597
745.914
-76.3533
822.437
-77.4998
899.671
-78.1993
978.122
-79.4732
1054.73
-77.6945
1129.83
-75.9867
1205.35
-76.5157
1280.3
-76.1022
1357.28
-77.5586
1434.31
-78.5484
1510.12
-76.4279
1587.54
-78.7494
1668.81
-82.3641
1750.18
-82.1648
1830.22
-81.6562
1909.76
-80.079
1983.76
-75.7352
2056.84
-74.1124
2135.26
-79.868
2215.41
-81.0831
2292.22
-78.6232
2366.21
-74.942
2433.98
-69.3026
2497.76
-65.0534
2557.25
-60.4316
2613.08
-57.6143
2668.86
-57.1252
2722.93
-55.6682
2773.71
-52.4896
2818.26
-46.3134
2858.4
-41.885
2894.54
-37.9731
2925.05
-32.6225
2951.67
-28.4423
2973.92
-23.8003
2991.62
-19.5929
3000.36
-10.8811
2998.63
-0.523871
2993.15
2.90167
2986.2
4.19269
2976.49
7.19729
2959.36
14.6831
2932.09
24.9443
2896.22
33.8411
2853.61
41.0761
2810.06
42.3646
2768.13
40.9331
2720.91
46.3691
2671.96
48.0793
2626.17
44.5333
2576.13
48.7421
2518.43
56.3742
2460.73
56.435
2403.8
55.7532
2340
62.7148
2273.62
65.4043
2210.38
62.3507
2145.34
64.2635
2078.94
65.7316
2015.24
63.055
1950.61
64.0175
1885.36
64.6476
1822.56
62.2392
1761.12
60.9065
1701.67
58.9597
1643.66
57.5783
1587.94
55.3351
1532.61
55.0323
1476.7
55.6741
1424.04
52.4946
1373.01
50.9162
1323.17
49.7853
1276.52
46.6234
1231.31
45.1948
1187.43
43.8901
1146.27
41.1535
1108.26
37.9935
1072.84
35.3993
1038.38
34.4288
1003.69
34.6326
970.108
33.5126
938.87
31.16
910.073
28.6982
883.894
26.0763
858.556
25.239
832.65
25.8091
806.102
26.4267
781.274
24.7297
758.831
22.3593
736.594
22.1782
713.743
22.8075
691.512
22.217
669.31
22.2342
647.152
22.2129
626.046
21.1844
605.939
20.2133
587.567
18.496
570.704
16.9671
553.564
17.24
536.554
17.0895
520.302
16.306
504.857
15.4824
490.074
14.7945
476.151
13.9049
464.027
12.0845
451.942
12.0308
438.535
13.3467
424.777
13.7106
412.195
12.5401
400.406
11.7479
388.123
12.2454
376.87
11.2209
367.157
9.66536
358.256
8.844
349.226
8.96759
339.686
9.44923
330.541
9.06565
322.195
8.27665
314.455
7.68988
307.378
7.0481
300.126
7.22939
290.926
9.18857
281.522
9.42443
273.533
8.02439
265.595
7.98759
257.511
8.13743
248.835
8.73333
239.414
9.48422
230.827
8.66078
223.416
7.47795
217.14
6.34203
211.804
5.38601
206.268
5.5745
200.81
5.49024
194.503
6.31643
188.797
5.71938
184.228
4.56883
179.983
4.22997
176.795
3.16774
174.062
2.69528
170.702
3.32062
166.593
4.05458
162.088
4.43545
157.405
4.60565
152.847
4.47903
149.126
3.63047
146.818
2.21939
144.162
2.56326
140.786
3.2835
138.331
2.37886
136.822
1.43746
134.414
2.33329
130.468
3.88557
126.574
3.83221
121.831
4.70203
116.312
5.47529
110.582
5.68211
105.541
4.99704
102.753
2.74725
100.717
1.97612
99.3289
1.33293
96.6272
2.64364
92.8921
3.67148
89.3251
3.50684
85.4347
3.83174
82.797
2.57142
80.827
1.90735
79.0663
1.70318
77.7242
1.29465
77.084
0.599967
76.5558
0.506667
75.5327
1.02262
74.7871
0.761974
73.6909
1.12903
72.1443
1.59565
71.8576
0.349267
71.698
0.219984
70.254
1.50389
67.7876
2.52161
64.279
3.55527
60.8736
3.44142
57.5973
3.28458
54.9135
2.67272
52.6101
2.2806
50.5099
2.05599
50.13
0.32886
50.8142
-0.73267
51.0244
-0.25149
49.9527
1.03874
48.1252
1.79881
45.6327
2.48309
43.6653
1.96313
42.792
0.864958
42.2334
0.554031
42.376
-0.138051
41.9636
0.418267
39.7787
2.20108
37.3014
2.48876
35.7578
1.57937
34.9687
0.819689
34.1801
0.828782
33.8667
0.336662
34.1011
-0.220146
34.0857
0.026881
33.3399
0.739435
32.4362
0.881853
32.3181
0.0892968
31.7421
0.546015
30.3846
1.31791
27.6727
2.6772
24.9194
2.71113
24.4803
0.404708
24.2879
0.154274
23.9331
0.315396
23.9714
-0.0819461
23.8982
0.0255863
24.3338
-0.488178
24.8724
-0.599568
25.6219
-0.808911
25.6278
-0.0770773
24.6231
0.933032
24.1896
0.370103
24.4533
-0.311238
23.5097
0.884034
21.2735
2.16784
19.4566
1.74358
17.8936
1.48692
16.2448
1.57715
16.1031
0.0657296
17.2235
-1.20338
17.8385
-0.707834
19.011
-1.26053
18.9226
-0.00828156
16.949
1.87858
15.5038
1.33841
14.4293
0.96813
13.7998
0.520454
13.6803
0.0115181
13.3585
0.22726
12.9678
0.311362
12.5351
0.373935
11.0144
1.47914
9.66532
1.32982
8.73487
0.905891
8.31956
0.391935
9.78022
-1.48601
10.3219
-0.556374
9.87653
0.431773
10.7706
-0.899278
11.1118
-0.341204
11.7606
-0.648599
13.6741
-1.90656
13.4386
0.237939
11.9384
1.5001
10.1654
1.75236
7.74098
2.39535
5.75439
1.9472
3.92428
1.78749
3.20837
0.658817
3.38564
-0.252681
3.29314
0.0422838
3.43718
-0.1838
4.24887
-0.83036
4.29792
-0.0548455
3.31919
0.971495
2.19233
1.12546
1.53878
0.651363
1.61754
-0.0917588
2.0712
-0.470959
2.79177
-0.738957
4.13595
-1.37221
5.26549
-1.15228
5.13084
0.115739
3.54969
1.54313
1.53015
1.97539
1.05526
0.432014
1.61678
-0.615209
2.55643
-0.990852
3.81043
-1.29361
5.00516
-1.22324
5.06927
-0.0799658
4.4902
0.560626
3.80203
0.668964
2.74293
1.05337
0.960758
1.74761
-1.2479
2.18452
-3.05943
1.78127
-4.2844
1.18124
-5.19633
0.869473
-5.08747
-0.170307
-4.75424
-0.412901
-5.26964
0.427265
-6.00237
0.649844
-6.33302
0.256159
-5.28647
-1.10845
-2.73476
-2.59699
-0.211871
-2.55346
-0.0992153
-0.147781
-1.36451
1.22513
-2.50846
1.13264
-3.50126
1.00266
-3.75102
0.275058
-2.00487
-1.72416
-1.66049
-0.316536
-2.2795
0.650995
-2.27958
0.0282764
-2.50941
0.280445
-3.05543
0.597804
-3.24108
0.234043
-2.07658
-1.11395
-2.23254
0.200038
-3.39562
1.19116
-4.38624
1.01363
-5.59121
1.22155
-5.78376
0.201149
-5.05636
-0.726103
-4.61422
-0.439397
-3.16601
-1.46359
-1.11947
-2.06736
1.56982
-2.70102
5.08512
-3.51794
6.52962
-1.43832
6.22242
0.335752
5.89172
0.374368
4.59252
1.3534
2.20234
2.45177
-0.738162
2.98473
-3.44972
2.74517
-5.63255
2.19441
-7.56011
1.95251
-8.34282
0.792634
-8.20881
-0.147329
-7.56267
-0.666904
-6.56002
-1.04043
-5.38084
-1.22929
-3.58548
-1.8424
-1.94274
-1.69761
-1.2902
-0.704278
-0.565913
-0.778168
0.936936
-1.55441
2.07444
-1.18846
2.50807
-0.492621
1.67297
0.77327
-0.0792746
1.6998
-1.85962
1.73178
-2.95085
1.04944
-3.58805
0.601406
-3.29457
-0.323747
-1.57017
-1.76931
-0.171654
-1.45372
1.03838
-1.27132
1.94063
-0.978036
1.81966
0.0375805
1.38554
0.338801
0.987887
0.317448
0.330785
0.575854
-0.521121
0.784437
-1.39041
0.815309
-2.18339
0.742998
-2.71847
0.504882
-2.74104
0.00769399
-2.86665
0.11387
-2.23199
-0.635729
-2.0676
-0.151932
-2.53115
0.493735
-2.4269
-0.0704901
-2.54828
0.164696
-2.99501
0.491272
-3.16761
0.21987
-2.37329
-0.732895
-2.74572
0.440747
-4.46844
1.79772
-4.7895
0.39987
-4.83584
0.127998
-5.17516
0.426379
-4.56671
-0.54021
-3.85867
-0.636806
-3.19199
-0.601724
-3.77895
0.633984
-4.58624
0.835173
-4.22906
-0.350579
-4.29168
0.0752578
-3.94114
-0.351005
-3.85289
-0.0859223
-4.44856
0.60345
-4.37587
-0.0526362
-4.66241
0.306614
-4.994
0.369718
-5.40869
0.453787
-5.63367
0.263306
-6.21478
0.615567
-7.36936
1.19281
-8.43441
1.11672
-7.92092
-0.455577
-5.25293
-2.59646
-3.95162
-1.221
-4.43328
0.568074
-4.24983
-0.0922952
-2.76207
-1.41192
-0.654676
-2.02576
1.08871
-1.68299
1.44886
-0.299659
0.63519
0.865325
-0.770188
1.4685
-2.61147
1.91543
-5.1755
2.64419
-6.19602
1.09934
-4.74482
-1.37308
-2.82052
-1.83639
-1.06208
-1.66729
-0.544344
-0.43222
-0.509603
0.0559142
0.0310454
-0.441557
0.793307
-0.674675
0.669971
0.21228
-0.701351
1.45146
-2.62901
1.98156
-5.18327
2.61293
-7.83792
2.70683
-10.0292
2.25245
-11.8596
1.88296
-13.0509
1.24649
-13.0925
0.101894
-11.614
-1.41865
-11.0759
-0.484988
-10.047
-0.955725
-7.42607
-2.54326
-5.8922
-1.45146
-4.45602
-1.34825
-3.51903
-0.838334
-2.41665
-1.00603
-1.80414
-0.533856
-0.853305
-0.869061
0.918447
-1.68442
1.5465
-0.561772
2.08113
-0.455896
3.06534
-0.91149
3.90651
-0.766127
4.36742
-0.389335
4.06622
0.365062
3.62344
0.496336
4.16237
-0.485001
4.56199
-0.350386
5.03083
-0.426531
4.18001
0.894113
2.83972
1.3737
1.85605
1.0103
0.126054
1.75435
-1.95857
2.10113
-2.93657
1.00094
-2.37988
-0.528302
-2.0383
-0.302426
-2.73712
0.755194
-3.44608
0.786805
-3.38298
0.0340004
-3.86841
0.603539
-4.02572
0.290408
-2.9685
-0.928924
-2.02456
-0.821801
-0.692114
-1.2338
1.11672
-1.72416
2.27203
-1.07534
1.49282
0.839559
-0.0537548
1.59338
-1.17042
1.15672
-2.5066
1.37264
-3.88255
1.39512
-5.00353
1.12956
-5.93316
0.930734
-6.42369
0.472562
-6.02337
-0.427115
-6.0185
-0.0148855
-5.21181
-0.799934
-3.33413
-1.85692
-2.33732
-0.952296
-1.59816
-0.673784
-1.91351
0.413701
-2.94335
1.15232
-2.67528
-0.108719
-1.71101
-0.801396
-1.99885
0.462542
-1.53843
-0.278198
1.00866
-2.36949
2.24607
-1.06556
1.64207
0.757986
0.731202
1.04255
-0.156579
1.00012
-0.206823
0.140479
0.382188
-0.522585
0.292982
0.146078
0.300053
0.0493524
0.462248
-0.0991285
0.857907
-0.344828
0.179584
0.729384
-1.03194
1.26542
-1.51669
0.532379
-2.59204
1.1366
-2.78873
0.251893
-1.95225
-0.779174
-1.34555
-0.53321
-1.32887
0.0520752
-1.37282
0.108229
-1.29162
72.4411
-152.48
144.893
-149.433
214.467
-145.146
286.148
-145.212
357.219
-146.433
431.455
-149.61
506.22
-150.514
580.577
-149.888
655.461
-150.578
728.057
-151.13
804.461
-153.063
879.027
-155.255
957.948
-157.712
1035.45
-157.439
1114.09
-154.187
1189.19
-153.61
1262.22
-149.358
1337.87
-154.2
1418.65
-160.663
1499.54
-157.363
1577.9
-158.973
1656.93
-161.146
1732.36
-159.827
1810.4
-159.503
1888.27
-160.246
1966.86
-154.566
2040.45
-148.874
2113.25
-154.166
2192.01
-160.898
2269.31
-157.333
2340.87
-147.882
2413.64
-142.062
2481.55
-135.205
2538.47
-118.618
2588.77
-109.112
2642.2
-113.003
2698.54
-113.858
2748.96
-104.556
2792.13
-91.0075
2830.98
-82.2798
2867.35
-75.8388
2901.04
-67.5415
2927.87
-57.2295
2946.42
-44.6597
2958.72
-34.1565
2966.41
-20.679
2969.83
-6.65168
2969.39
0.950435
2962.15
9.34434
2945.95
21.3211
2922.88
35.8337
2897.43
48.048
2867.82
60.5255
2828.58
78.2498
2782.68
87.3211
2737.28
84.9566
2693.04
89.4465
2645.78
93.8518
2595.53
93.4759
2542.82
100.123
2487.89
110.084
2431.21
111.808
2373.67
111.975
2314.59
120.655
2252.35
126.607
2187.17
126.647
2120.42
130.192
2054.79
130.623
1990.91
126.349
1927.33
126.967
1865.09
126.297
1805.08
121.645
1745.86
119.613
1687.25
117.083
1629.97
114.407
1573.88
111.105
1519.08
109.562
1465.54
108.995
1413.54
104.311
1363.48
100.859
1315.19
97.9931
1268.5
93.2618
1223.65
90.0445
1181.22
86.3002
1141.07
81.3658
1102.75
76.2889
1066.35
71.8155
1031.59
69.0992
997.879
68.2943
965.106
66.2362
934.029
62.1335
905.115
57.5151
877.548
53.5705
850.863
51.7823
825.165
51.3101
800.671
50.8222
777.02
48.2795
753.049
46.2383
730.181
44.9281
707.523
45.3907
685.099
44.6324
663.861
43.4473
643.155
42.9498
622.625
41.7847
602.803
40.1
583.616
37.761
565.396
35.2963
548.425
34.2912
532.696
32.9118
518.008
31.0662
503.375
30.1367
488.875
29.2172
474.873
27.8766
460.51
26.4088
446.073
26.4223
433.724
25.6373
422.743
24.5957
409.718
25.4719
395.852
25.5709
384.319
23.7554
374.155
21.3316
363.85
19.9975
352.999
19.6489
343.265
18.6119
336.406
16.2713
329.442
15.976
320.284
17.3474
311.335
16.5506
302.682
15.6121
294.355
15.5107
287.477
16.0652
280.34
16.5956
272.285
16.1714
264.125
16.2259
255.831
16.4772
248.116
16.5298
239.991
17.6849
230.938
17.7512
223.753
14.7161
217.877
12.2635
211.866
11.4507
205.515
11.948
199.599
11.4006
194.359
11.5908
189.99
10.0794
185.734
8.79731
180.968
8.98633
176.469
7.65226
172.94
6.1885
168.348
7.82425
162.689
9.65817
158.161
8.93725
155.197
7.5107
153.123
6.45061
149.836
6.84581
146.921
5.04734
143.489
5.94882
139.105
7.60066
136.131
5.25861
133.711
3.76914
131.052
4.96423
126.534
8.29357
121.669
8.69313
116.812
9.42908
113.184
9.00681
109.287
9.50642
104.81
9.42264
103.11
4.40257
100.595
4.50049
97.9942
3.88202
95.8512
4.72492
92.8019
6.69277
89.559
6.68615
86.7021
6.61005
85.7688
3.42406
84.7785
2.79869
82.266
4.11374
78.2094
5.28932
75.6423
3.11644
76.1095
0.0248604
76.1578
0.978412
74.3007
2.64595
71.3199
4.1519
68.9717
3.99429
67.7624
1.59315
66.5513
1.48141
66.3274
1.80447
66.3198
2.56061
65.047
4.85179
63.5456
4.93967
60.2721
6.56946
56.9112
6.03233
53.9597
5.17729
50.2887
5.73235
49.046
1.4863
49.2548
-1.00264
47.7476
1.21288
46.6558
2.08768
47.5952
0.842009
47.0312
2.98621
45.1574
3.8062
43.6595
2.3275
41.9663
2.23465
39.8399
1.96865
38.9399
1.34567
39.5073
1.64329
39.3142
2.74719
37.5369
3.37104
34.715
3.67182
32.6563
2.87641
32.6363
0.37567
33.1428
-0.69604
34.1429
-0.947432
35.2066
-0.311905
35.866
0.204652
36.009
-0.0979642
33.763
2.72973
30.0723
4.96298
27.2936
5.41607
25.7331
4.24391
25.4286
0.698507
24.8736
0.681424
23.8243
1.3306
22.9974
0.699235
21.3873
1.58601
21.9465
-1.0994
25.2376
-3.94221
27.4601
-3.16167
27.0098
0.290903
24.9215
2.96344
23.2082
2.0023
21.9414
0.857273
21.3742
1.39059
22.3083
1.18867
22.361
1.62823
20.0457
3.72129
17.6563
3.84796
16.6195
0.998111
15.9325
-0.609454
14.9295
0.239322
15.9571
-2.41593
16.5296
-0.649356
13.4138
4.88848
10.4366
4.21851
9.49947
1.81275
11.9874
-2.06973
15.5047
-3.5872
15.2005
0.4296
12.6319
2.75991
11.2198
1.73825
11.6273
1.01899
12.7001
0.201791
11.5955
2.0262
8.88944
3.09453
8.9628
-1.53026
10.5356
-2.09819
11.2911
-0.295913
12.2538
-1.86179
11.7038
0.229381
10.6003
0.484002
12.2833
-3.58551
13.7342
-1.19381
12.1845
3.03635
8.72996
5.23287
6.32177
4.80269
5.48764
2.75902
3.23469
3.95302
1.74258
2.08546
2.7351
-1.26869
4.08285
-1.36614
3.74836
0.133346
2.51282
0.451942
3.05673
-0.498429
3.77425
0.326338
2.35399
2.54008
1.81771
1.16715
1.92179
-0.225568
0.545796
0.894441
-0.0860885
-0.118363
2.37985
-3.82116
4.9691
-3.77391
4.55614
0.436009
3.40171
2.67064
2.99291
2.37303
2.20497
1.13254
0.538215
0.996753
-0.0474016
-0.449586
2.8798
-4.27938
6.48365
-4.86875
6.56384
-0.243453
6.50305
0.573339
6.9157
0.267074
4.67573
3.23284
1.55974
4.94798
0.228467
3.49555
-0.809179
2.8067
-2.43763
2.79012
-3.38004
1.75005
-4.01872
0.394913
-4.68975
0.215918
-4.68932
0.369841
-5.1418
1.04031
-5.62408
0.673708
-3.76512
-3.0188
-1.18736
-5.24492
0.223287
-4.03472
0.283651
-0.244457
-0.231722
1.76973
-1.44847
2.34304
-2.703
2.24138
-3.59684
1.16844
-2.86231
-2.3879
-3.61572
0.481243
-3.91826
0.964447
-2.53885
-1.29753
-3.38319
1.14133
-5.14325
2.36601
-4.97748
0.0831075
-1.49971
-4.56196
0.557242
-1.85482
-0.273665
2.07853
-2.55309
3.3216
-5.20188
3.88214
-4.65772
-0.3353
-3.85925
-1.51695
-5.03636
0.718372
-4.95272
-1.54921
-4.30229
-2.7137
-2.38699
-4.62319
1.88832
-7.78798
5.43694
-4.9637
6.38647
-0.556649
5.29524
1.56067
3.14991
3.57018
0.799226
4.84931
-2.61497
6.50657
-4.20747
4.42393
-4.22764
2.30921
-5.78497
3.52865
-5.60213
0.603927
-5.1247
-0.600182
-6.56997
0.770316
-7.36136
-0.284297
-6.45621
-2.16287
-2.88107
-5.48551
1.45349
-6.06001
1.92132
-1.23709
0.668897
0.418467
1.05396
-1.98977
1.11093
-1.30141
0.63801
-0.0628449
0.569131
0.827076
-0.187423
2.40118
-2.45989
3.96148
-4.03391
2.59313
-5.78159
2.30048
-7.42645
1.26202
-5.56821
-3.6781
-2.35717
-4.72907
0.391787
-4.08135
2.10251
-2.77333
1.81985
0.207854
1.58137
0.516933
1.18308
0.57871
-0.046279
1.74204
-0.150282
0.83579
-0.220057
0.82947
-1.63031
2.13062
-3.67803
2.47158
-4.84449
1.13266
-4.74925
0.0189567
-2.04779
-3.29718
-0.0159193
-2.16613
-0.633214
1.13463
-0.966524
0.307869
-1.29397
0.524146
-2.35448
1.59072
-3.52675
1.43925
-3.41554
-0.80085
-3.47337
0.540738
-3.58219
1.97395
-2.2689
-0.826616
-1.37012
-0.689448
-1.79772
0.901796
-3.35989
1.1434
-5.04232
1.15994
-4.47797
-1.09909
-3.63971
-0.145022
-4.08288
1.30684
-4.86891
0.481328
-5.79183
1.00873
-3.87857
-2.20756
-2.38017
-1.55431
-3.36564
1.61481
-3.31384
-0.0442867
-4.04979
1.12587
-5.15369
1.5175
-4.80598
0.140042
-3.48198
-1.0044
-3.95685
1.15585
-6.41325
3.70551
-8.17109
2.9143
-7.58609
-0.9711
-5.82694
-4.29417
-6.27774
-0.704713
-7.60214
1.99344
-7.08625
-0.510571
-4.81924
-3.55224
-1.73199
-5.07001
1.57362
-4.91418
3.07472
-1.74285
2.12129
1.89201
-0.709377
4.3486
-4.01154
5.23667
-6.03399
4.69129
-5.31182
0.454725
-3.60002
-2.94855
-3.08912
-2.25215
-2.21052
-2.45622
-1.28306
-1.25239
-0.560886
-0.578305
-0.718802
-0.213895
-0.983146
-0.328716
-1.41552
0.711785
-3.56613
3.65163
-5.73438
4.20726
-6.75463
3.68955
-6.34268
2.35966
-6.8879
2.82177
-8.76138
3.80113
-9.25587
1.81025
-8.83243
-0.230101
-8.13562
-2.06128
-9.11201
0.589449
-8.76272
-1.24889
-6.59289
-4.65277
-6.11227
-1.87068
-3.81774
-3.5904
-1.48591
-3.09919
-0.480762
-1.92483
-0.398291
-0.509232
-0.718981
-0.482112
-0.288214
-2.10586
-0.0325101
-0.712929
0.580351
-1.0071
1.21145
-1.44536
1.15165
-0.638859
2.02115
-1.1866
2.85874
-0.394218
2.19657
1.23687
1.22176
0.550419
0.122679
0.799612
0.485752
-0.73627
1.24739
0.118761
1.63103
1.01666
1.41927
1.24113
1.32343
1.87186
0.785739
2.67897
-1.11916
2.91697
-1.63722
0.0138848
-1.83342
-0.0687191
-3.30182
2.2962
-2.58654
0.167272
-1.10449
-1.30848
-2.01429
1.65927
-1.92387
0.307421
-1.51317
-1.21598
-2.01442
-0.177146
-1.38157
-1.75174
-0.434145
-2.55808
1.26421
-2.69853
1.24982
0.815866
-0.818708
3.70507
-0.692697
1.09465
-0.697281
1.45608
-2.55265
3.3629
-4.46186
3.09438
-7.15698
3.60566
-8.74467
2.06435
-8.06269
-1.08299
-7.22734
-0.848038
-3.52964
-4.49401
1.30384
-6.65968
2.4603
-2.06816
1.36356
0.498776
-1.21002
3.06596
-3.62536
3.69569
-4.60865
0.974504
-4.94818
-0.302413
-5.37511
1.0798
-4.65996
-0.816939
-1.2232
-5.63157
1.9635
-4.11225
2.80728
0.0739877
2.3795
1.6389
1.55129
1.93704
1.17742
0.60378
0.155063
0.620188
-2.12595
2.5309
-3.00263
1.01831
-2.58743
-0.471344
0.167851
-3.04058
2.54105
-1.60279
2.52722
1.3303
1.60096
1.53724
-0.613858
3.30565
-0.618493
0.296797
0.000308847
-1.33527
-1.19293
0.692876
-2.77604
1.68426
-3.09025
0.54161
-4.33113
68.1376
-221.444
138.308
-219.403
206.189
-214.488
276.046
-214.758
345.289
-217.926
419.555
-222.711
494.865
-229.198
575.005
-228.377
648.664
-227.791
722.156
-223.862
792.894
-226.393
863.857
-226.111
935.714
-232.095
1013.87
-234.854
1092.52
-235.406
1171.84
-232.632
1246.94
-225.324
1321.33
-231.395
1402.53
-240.186
1482.7
-241.103
1565.52
-240.734
1639.28
-237.212
1708.56
-230.293
1783.64
-234.716
1863.49
-242.643
1946.91
-237.801
2021.78
-226.035
2091.72
-225.742
2165.58
-237.828
2244.3
-234.994
2316.03
-222.412
2387.78
-215.417
2456.33
-204.222
2514.77
-179.537
2567.64
-162.426
2619.11
-166.093
2669.26
-166.578
2714.27
-151.605
2758.23
-136.665
2800.97
-126.969
2839.18
-115.815
2871.26
-102.508
2896.95
-84.8237
2916.94
-65.8846
2930.89
-49.544
2940.18
-32.4348
2944.93
-14.1127
2942.6
0.656418
2933.16
16.7374
2915.31
37.1428
2890.49
58.4732
2862.87
73.5217
2832.11
89.1498
2794.73
112.513
2752.48
127.208
2709.14
126.149
2666.49
129.982
2619.61
139.113
2566.85
144.515
2513.7
151.512
2461.19
161.016
2404.03
167.58
2343.87
171.01
2285.74
177.527
2225.53
185.767
2159.71
191.488
2093.65
195.492
2029.89
193.588
1966.32
189.133
1904.14
188.482
1844.48
185.334
1786.45
179.048
1728.66
176.819
1670.85
174.465
1614.46
170.468
1558.31
166.803
1504.14
163.282
1452.59
160.271
1401.35
155.417
1352.37
149.769
1305.52
144.796
1258.99
139.699
1214.68
134.315
1173.71
127.384
1134.25
120.796
1095.69
114.913
1058.66
108.745
1023.96
103.908
990.96
101.338
958.835
98.2861
928.117
92.7929
898.977
86.588
870.301
82.0305
842.929
79.0248
817.716
76.4831
794.498
73.8762
771.433
71.1872
746.704
70.7563
723.364
68.0481
700.834
67.8541
678.516
66.8765
658.084
63.9484
638.339
62.773
618.298
61.9457
598.696
59.8344
579.105
57.4201
560.356
54.2069
543.644
51.1795
528.868
47.7403
514.85
45.1068
500.325
44.6369
486.265
43.3802
471.994
42.0901
456.492
41.832
441.409
41.4576
429.609
37.4585
419.534
34.7317
406.66
38.3805
392.347
39.9193
380.738
35.4674
370.992
31.1739
360.6
30.2526
349.571
30.6115
339.745
28.3551
333.008
22.9033
325.908
22.9677
316.163
27.085
307.085
25.6258
298.435
24.2538
290.274
23.6606
284.037
22.3567
277.286
23.3445
269.659
23.7739
261.961
23.9704
254.046
24.5433
246.657
23.9913
239.176
25.2165
230.571
26.4394
223.422
21.9389
217.428
18.3065
211.197
17.7431
204.858
18.3861
198.799
17.5041
193.892
16.4801
190.044
13.919
185.934
12.9502
180.801
14.1076
175.664
12.7455
172.183
9.63111
167.998
11.8486
162.222
15.3256
157.103
13.9215
154.123
10.3971
151.983
8.5272
148.642
10.0778
145.918
7.67459
141.602
10.0996
136.038
13.0919
133.121
8.15836
130.762
6.06693
127.255
8.25853
122.456
13.1166
117.655
13.2768
113.547
13.5958
110.976
11.6049
108.39
12.0898
104.756
13.0851
103.345
5.84249
100.592
7.15743
97.3914
6.97121
95.1658
6.93561
92.6585
9.14654
90.112
9.24256
88.0157
8.72018
88.0771
3.36705
87.1782
3.68489
84.5556
6.71894
80.7526
8.98958
77.2251
6.65819
75.5836
1.60972
74.1378
2.40102
71.9514
4.86671
69.3373
6.84565
66.9946
6.44293
64.9366
3.80773
63.1583
3.4264
63.4963
1.51766
64.4369
1.74062
63.8659
5.51466
63.0373
5.83316
60.1741
9.46197
57.2143
8.98439
54.3681
8.07276
50.0573
9.94006
48.7203
2.90326
48.9038
-1.20417
47.272
2.80176
46.2284
3.10471
47.1077
-0.0637578
46.8138
3.27483
44.8133
5.77966
43.3438
3.77273
42.122
3.27672
39.6515
4.37584
38.4134
2.51699
39.1497
0.938785
39.2302
2.65571
38.1351
4.49652
35.5021
6.3376
33.9734
4.45767
34.6914
-0.304438
34.4566
-0.434777
34.2627
-0.813777
34.2176
-0.352265
34.5433
-0.162947
35.8814
-1.4236
34.7252
3.85981
31.2267
8.41309
27.9833
8.57933
25.9809
6.2402
24.914
1.61138
23.8553
1.66124
23.0576
2.07516
22.0807
1.61276
20.565
3.04231
20.9027
-1.53457
23.922
-7.06612
26.9989
-6.26403
27.3923
-0.190697
25.4668
4.81769
22.7376
4.78996
21.6078
2.09171
21.8784
1.17412
22.8654
0.185949
23.2677
1.2193
20.8706
6.04986
18.0825
6.57641
16.8765
2.13686
15.7489
0.47217
14.0311
1.81501
14.883
-3.28731
15.0612
-0.965921
11.6414
8.26907
8.53962
7.29726
7.66075
2.59767
10.5625
-5.01102
14.4649
-7.57292
14.8829
-0.0496177
12.8347
4.86258
11.5223
2.97871
12.688
-0.122545
14.176
-1.24846
12.892
3.27497
10.2867
5.76049
9.97946
-1.26159
10.2472
-2.47487
10.1692
-0.243738
11.1151
-2.78074
10.012
1.28499
8.72081
1.7388
10.8367
-5.69107
12.5536
-2.9308
11.4495
4.199
8.54063
8.14157
6.4243
6.87606
5.38428
3.74325
3.53629
5.79058
2.78739
2.76607
3.70085
-2.21453
3.78977
-1.48222
2.44887
1.43444
1.58395
1.20968
2.75949
-1.77216
4.02656
-1.00933
3.15367
3.41782
2.37974
1.91341
2.41751
-0.224679
1.14105
2.13988
0.0369846
0.937008
1.43649
-5.33113
3.42417
-5.82839
3.38113
0.474725
2.70576
3.26229
2.22303
2.71746
1.38482
1.99523
0.157488
2.19895
0.272278
-0.630241
3.04834
-7.11362
5.75905
-7.67188
6.22373
-0.685059
6.67412
0.146459
6.92189
-0.0889521
4.71476
5.43915
1.73684
7.74639
0.836748
4.37879
-0.273448
3.85202
-1.71328
4.16009
-2.19702
2.17819
-2.43651
0.621614
-2.6485
0.370633
-2.81889
0.48961
-4.07566
2.20137
-4.30058
0.815194
-2.5655
-4.80765
-0.701756
-7.10675
1.18673
-5.91738
1.4924
-0.575111
0.863875
2.20675
-0.0325705
3.15945
-1.89254
4.13275
-3.29032
2.63901
-2.56271
-3.125
-3.66716
1.60755
-4.51224
1.89274
-3.13647
-2.68013
-3.37458
1.36295
-4.97601
3.9573
-4.80012
-0.0224106
-1.35778
-8.03561
0.62861
-3.74795
0.0791478
2.6104
-1.54475
4.92265
-3.88827
6.20468
-3.74253
-0.498609
-3.59296
-1.67806
-4.95398
2.06382
-4.56033
-1.9762
-3.78807
-3.50284
-3.06946
-5.35309
-0.639012
-10.1668
2.26154
-7.73275
2.97655
-1.20442
2.25225
2.28554
1.07148
4.79618
-0.769531
6.67252
-3.82402
9.47938
-4.99649
5.53566
-4.12203
1.46405
-4.57268
3.97564
-3.5003
-0.427718
-2.43302
-1.72167
-3.91642
2.19637
-5.04763
0.839313
-4.27126
-3.00236
-1.60549
-8.18305
1.45896
-9.19989
1.78477
-1.51103
0.389462
1.87172
0.254736
-1.82051
0.397784
-1.37065
0.257635
0.102382
-0.00926782
0.996417
-1.04915
3.38188
-3.32834
6.1286
-5.08354
4.24411
-7.14195
4.32656
-8.68689
2.75355
-6.50887
-5.82594
-3.46664
-7.74485
-1.26714
-6.3841
0.497455
-4.61747
0.798466
-0.158382
0.72802
0.442766
0.416503
0.843005
-0.595214
2.6149
-0.848733
0.949579
-1.11123
0.988175
-2.30814
3.25182
-3.70211
3.91224
-4.34265
1.73654
-4.08555
-0.237417
-1.70824
-5.73621
0.385318
-4.22185
0.108009
1.4308
-0.0540471
0.470765
-0.338289
0.844446
-1.82614
3.13322
-2.69728
2.37677
-1.75564
-1.69271
-1.5548
0.42772
-1.98386
2.46402
-1.44118
-1.30226
-0.476373
-1.52979
-0.543571
1.10969
-3.15847
3.87588
-5.61349
3.63361
-4.42489
-2.25489
-3.46628
-1.09744
-4.48343
2.38597
-4.963
1.00901
-5.11684
1.3127
-4.00438
-3.31253
-3.65587
-1.87553
-4.44622
2.44573
-3.60977
-0.912973
-3.78605
1.28299
-4.74521
2.47964
-3.99241
-0.568094
-1.99499
-2.97419
-1.96795
1.12098
-4.7007
6.45218
-7.4441
5.72688
-7.46014
-0.866663
-5.12102
-6.54423
-5.24051
-0.486504
-7.51487
4.28131
-7.35107
-0.614018
-5.58759
-5.37771
-3.75725
-6.89035
-0.553042
-8.115
1.57002
-3.83833
1.05074
2.45221
-1.35171
6.78746
-4.28141
8.28544
-5.89988
6.4382
-5.36799
-0.0309104
-4.13753
-4.21066
-3.50447
-2.7888
-2.34386
-3.50401
-1.56488
-1.89104
-2.08568
0.0681024
-2.83491
0.625662
-2.35125
-0.662849
-2.35579
0.748086
-4.02598
5.40393
-5.67349
6.00642
-6.14685
4.1918
-5.01522
1.25088
-4.92271
2.70913
-5.91036
4.75846
-6.5484
2.50109
-6.52253
-0.23161
-5.36901
-3.08417
-6.94134
2.2203
-7.69246
-0.444633
-5.53844
-6.71775
-5.48949
-1.75524
-3.90479
-4.95632
-1.55025
-5.37402
-0.921777
-2.51588
-1.24087
-0.149749
-1.46547
-0.221586
-0.800067
-2.66903
-0.918995
-0.584843
-1.01567
-0.866823
-0.541273
-1.87776
-0.507266
-0.595537
0.202104
-1.85119
0.956937
-1.11482
0.389085
1.86231
-0.380559
1.35981
-1.03288
1.51706
0.015149
-1.7256
0.943277
-0.628823
1.16691
0.869748
1.38054
1.11663
1.41684
1.87795
0.676886
3.42998
-1.00358
4.60084
-0.631649
-0.383654
-0.681251
0.036838
-2.86463
4.55587
-2.59249
0.0184816
-0.945957
-2.79888
-1.42697
2.19731
-1.44514
0.48822
-1.50187
-1.00886
-2.18937
0.577451
-1.15676
-2.56823
0.605402
-4.18509
1.95109
-4.06158
1.24796
1.71979
-0.694676
5.59382
-0.680777
1.03594
-0.467256
1.22892
-1.7805
4.66658
-3.59163
4.9391
-6.21788
6.31044
-7.32583
3.21148
-5.93149
-2.50009
-5.75998
-1.04122
-2.73424
-7.52566
2.50225
-11.826
3.39635
-2.8576
1.94014
2.0669
-0.435127
5.58804
-2.71531
6.09656
-3.99511
2.41479
-5.03356
0.916183
-5.79752
1.98347
-5.44242
-1.00135
-2.67827
-8.24608
0.478764
-7.05014
1.32136
-0.582537
0.463342
2.67145
-0.201696
2.85299
0.257667
0.296744
0.167182
0.749393
-2.13572
4.87324
-3.49777
2.40042
-3.22078
-0.656754
-1.03048
-5.13845
1.45069
-3.96015
1.92375
0.900449
1.11516
2.34907
-0.346352
4.96774
0.426246
-0.392957
1.67725
-2.45648
0.910605
1.57392
-1.61089
4.39771
-3.48149
2.4533
-7.67331
65.7769
-287.189
133.082
-288.573
204.696
-283.817
272.565
-285.454
343.204
-286.461
410.439
-292.754
482.582
-300.216
558.486
-305.954
632.036
-302.624
703.906
-295.431
773.412
-298.521
845.187
-296.723
914.48
-304.123
989.164
-308.668
1062.1
-310.614
1138.81
-308.351
1215.33
-303.914
1293.99
-309.916
1371.81
-319.238
1450.05
-320.712
1531.35
-321.996
1604.16
-312.723
1675.18
-299.836
1746.92
-310.408
1827.38
-321.339
1906.91
-320.236
1984.38
-304.469
2056.4
-300.167
2127.47
-311.228
2203.21
-311.891
2277.43
-298.1
2346.56
-287.726
2412.88
-270.73
2476.01
-244.435
2536.15
-225.807
2591.45
-224.395
2638.53
-215.498
2677.18
-192.603
2718.81
-180.003
2763.72
-173.46
2802.63
-157.059
2832.56
-135.698
2859.19
-113.563
2885.57
-92.4383
2903.02
-68.5075
2911.03
-42.2131
2911.84
-16.9262
2906.31
3.80648
2896.24
23.8405
2880.27
50.6844
2856.69
78.9206
2827.98
99.1216
2795.68
118.344
2760.24
145.169
2720.92
164.253
2678.54
166.291
2635.29
170.793
2588.25
184.226
2536.37
194.865
2484.52
202.001
2432.51
211.709
2374.33
224.424
2312.59
231.377
2254.32
234.669
2194.87
243.982
2130.64
254.596
2066.72
258.682
2004.61
254.945
1942.06
250.822
1881.71
248.123
1823.63
242.725
1766.43
235.862
1709.41
233.301
1652.31
231.044
1596.53
225.693
1541.02
221.749
1488.1
216.005
1437.89
210.254
1387.65
205.506
1339.68
197.574
1293.86
190.539
1248.03
185.417
1204.47
177.909
1164.37
167.625
1125.29
159.883
1086.85
153.283
1050.13
145.494
1015.52
138.455
982.627
134.06
951.014
129.885
920.704
123
891.286
115.842
862.634
110.659
835.511
106.034
810.639
101.239
787.396
97.0406
764.311
94.1867
740.029
94.9876
716.44
91.3216
693.63
90.3988
671.837
88.6187
652.101
83.6098
632.952
81.9342
613.089
81.7815
593.46
79.5455
574.418
76.6528
556.015
72.5884
539.223
67.7882
524.845
62.0375
510.92
58.9977
495.894
59.6897
481.644
57.361
467.181
56.4004
451.994
56.8796
437.995
55.1667
426.33
48.8626
415.354
45.5214
403.148
50.4908
389.999
52.9895
377.621
47.6875
367.325
41.3835
357.285
39.9968
347.18
40.5776
337.549
37.9226
329.254
30.9571
320.772
31.2424
310.736
37.0212
302.224
34.1166
294.842
31.7832
287.652
30.927
280.707
29.2911
272.996
31.2759
265.979
31.231
259.048
31.1078
251.743
31.8858
244.641
31.0614
237.536
32.2548
229.735
34.1925
222.451
29.1663
215.944
24.8103
210.09
23.5849
204.621
23.7199
198.889
23.3569
193.797
21.6908
189.409
18.325
184.652
17.7172
179.094
19.8136
174.198
17.8293
171.43
12.3712
168.396
14.5513
163.581
20.0972
158.394
19.086
154.449
14.3454
150.437
12.4703
146.27
14.1821
143.215
10.6577
138.984
14.3169
133.768
18.1468
130.203
11.6614
127.01
9.18835
122.54
12.7663
117.593
17.9981
114.365
16.5302
111.504
16.3277
109.302
13.7025
107.522
13.8636
104.862
15.7107
103.552
7.42457
100.678
10.1221
96.9407
10.6324
94.589
9.27846
92.5362
11.2468
91.223
10.5117
90.3814
9.39698
90.2378
3.2979
88.9506
4.58206
86.4518
9.04332
83.5675
11.8806
79.2843
10.7369
74.5557
6.35495
71.1532
5.87069
69.121
6.90544
67.3424
8.63411
65.8665
7.95244
63.591
6.15984
61.0538
5.95164
61.0874
1.5363
62.0673
0.7723
61.9794
5.62699
61.0171
6.8191
58.5464
11.9299
56.5775
11.0055
54.3492
10.3778
51.2499
13.1768
49.5916
4.20782
48.3017
-0.0557895
46.7597
4.29489
46.2013
3.65267
46.3824
-0.254605
45.7903
3.94157
44.4312