/*--------------------------------*- C++ -*----------------------------------*\
| =========                 |                                                 |
| \\      /  F ield         | OpenFOAM: The Open Source CFD Toolbox           |
|  \\    /   O peration     | Version:  v2012                                 |
|   \\  /    A nd           | Website:  www.openfoam.com                      |
|    \\/     M anipulation  |                                                 |
\*---------------------------------------------------------------------------*/
FoamFile
{
    version     2.0;
    format      ascii;
    class       volScalarField;
    location    "250";
    object      T;
}
// * * * * * * * * * * * * * * * * * * * * * * * * * * * * * * * * * * * * * //

dimensions      [0 0 0 1 0 0 0];


internalField   nonuniform List<scalar> 
65536
(
293.086
293.089
293.112
293.116
293.139
293.134
293.156
293.149
293.171
293.173
293.188
293.193
293.204
293.208
293.224
293.233
293.244
293.262
293.262
293.291
293.301
293.332
293.359
293.376
293.412
293.433
293.476
293.512
293.542
293.581
293.645
293.699
293.762
293.835
293.893
293.968
294.06
294.15
294.234
294.343
294.432
294.545
294.657
294.781
294.92
295.064
295.21
295.394
295.568
295.767
295.97
296.163
296.357
296.544
296.693
296.744
296.844
296.938
297.06
297.216
297.377
297.54
297.698
297.856
298.009
298.157
298.3
298.428
298.549
298.659
298.758
298.848
298.925
298.991
299.046
299.092
299.131
299.161
299.184
299.2
299.21
299.216
299.216
299.215
299.213
299.211
299.21
299.207
299.205
299.202
299.199
299.195
299.192
299.188
299.183
299.181
299.181
299.182
299.187
299.189
299.194
299.198
299.199
299.201
299.201
299.201
299.199
299.197
299.196
299.195
299.196
299.193
299.195
299.197
299.196
299.196
299.196
299.197
299.199
299.201
299.206
299.211
299.218
299.225
299.229
299.235
299.238
299.24
299.241
299.24
299.239
299.239
299.24
299.241
299.244
299.247
299.251
299.251
299.25
299.246
299.241
299.233
299.226
299.219
299.215
299.21
299.207
299.206
299.205
299.209
299.211
299.214
299.219
299.223
299.227
299.23
299.231
299.229
299.23
299.229
299.23
299.23
299.232
299.233
299.233
299.234
299.235
299.237
299.237
299.241
299.244
299.248
299.252
299.255
299.258
299.261
299.265
299.269
299.271
299.273
299.274
299.274
299.273
299.273
299.273
299.272
299.27
299.266
299.262
299.259
299.254
299.251
299.248
299.244
299.24
299.239
299.238
299.236
299.236
299.235
299.235
299.234
299.237
299.236
299.237
299.237
299.235
299.233
299.229
299.225
299.219
299.214
299.211
299.209
299.209
299.212
299.216
299.22
299.224
299.226
299.227
299.225
299.226
299.223
299.223
299.223
299.222
299.22
299.219
299.217
299.214
299.212
299.211
299.213
299.217
299.222
299.227
299.231
299.236
299.24
299.242
299.245
299.246
299.246
299.246
299.243
299.244
299.244
299.245
299.248
299.249
299.249
299.249
299.249
299.252
299.253
299.256
299.26
299.263
299.262
299.261
299.261
299.258
299.255
299.253
299.25
299.245
299.239
299.235
299.232
299.231
299.231
299.232
299.234
299.238
299.244
299.248
299.252
299.255
299.257
299.257
299.256
299.255
299.254
299.251
299.249
299.25
299.248
299.25
299.251
299.251
299.25
299.248
299.245
299.242
299.239
299.237
299.234
299.231
299.229
299.225
299.223
299.22
299.22
299.217
299.217
299.218
299.221
299.224
299.228
299.23
299.232
299.232
299.232
299.229
299.228
299.226
299.224
299.223
299.223
299.222
299.221
299.218
299.217
299.217
299.216
299.217
299.22
299.221
299.22
299.221
299.22
299.22
299.22
299.222
299.221
299.22
299.222
299.225
299.228
299.233
299.236
299.236
299.235
299.234
299.233
299.231
299.229
299.227
299.228
299.229
299.232
299.234
299.24
299.243
299.247
299.25
299.252
299.254
299.255
299.257
299.258
299.258
299.258
299.258
299.257
299.258
299.258
299.256
299.255
299.252
299.248
299.245
299.243
299.241
299.241
299.244
299.245
299.247
299.247
299.247
299.245
299.241
299.237
299.235
299.232
299.228
299.225
299.22
299.218
299.217
299.223
299.229
299.234
299.237
299.237
299.235
299.23
299.225
299.218
299.213
299.209
299.209
299.209
299.211
299.213
299.215
299.218
299.221
299.225
299.229
299.234
299.239
299.242
299.245
299.246
299.247
299.246
299.246
299.248
299.251
299.255
299.257
299.258
299.257
299.253
299.25
299.244
299.238
299.232
299.226
299.223
299.22
299.216
299.211
299.206
299.2
299.196
299.196
299.197
299.199
299.202
299.207
299.214
299.221
299.226
299.233
299.238
299.244
299.247
299.25
299.254
299.256
299.255
299.254
299.251
299.248
299.246
299.243
299.244
299.242
299.243
299.244
299.244
299.244
299.243
299.242
299.241
299.24
299.239
299.237
299.235
299.236
299.234
299.231
299.227
299.222
299.219
299.215
299.213
299.211
299.212
299.214
299.215
299.218
299.222
299.226
299.227
299.229
299.231
299.231
299.232
299.23
299.228
299.227
299.225
299.224
299.227
299.229
299.235
299.237
299.24
299.241
299.242
299.24
299.239
299.24
299.242
299.245
299.249
299.253
299.256
292.519
292.536
292.515
292.552
292.531
292.567
292.56
292.579
292.588
292.58
292.61
292.592
292.627
292.612
292.643
292.632
292.661
292.664
292.681
292.701
292.708
292.746
292.744
292.801
292.799
292.852
292.865
292.89
292.948
292.993
293.039
293.112
293.152
293.223
293.307
293.373
293.461
293.551
293.652
293.734
293.845
293.95
294.065
294.195
294.342
294.49
294.629
294.783
295.018
295.23
295.436
295.634
295.826
296.01
296.185
296.351
296.496
296.656
296.824
296.987
297.175
297.349
297.522
297.685
297.843
297.988
298.128
298.27
298.393
298.51
298.613
298.699
298.783
298.85
298.908
298.955
298.986
299.019
299.043
299.059
299.068
299.063
299.068
299.064
299.071
299.071
299.07
299.068
299.069
299.063
299.059
299.056
299.047
299.042
299.036
299.028
299.029
299.033
299.031
299.049
299.051
299.055
299.064
299.063
299.06
299.058
299.061
299.059
299.057
299.052
299.042
299.05
299.051
299.05
299.058
299.057
299.056
299.055
299.057
299.064
299.065
299.073
299.075
299.08
299.093
299.094
299.099
299.099
299.095
299.098
299.101
299.095
299.094
299.097
299.103
299.106
299.106
299.108
299.11
299.107
299.099
299.092
299.08
299.073
299.061
299.064
299.062
299.06
299.06
299.054
299.065
299.07
299.07
299.081
299.087
299.089
299.087
299.09
299.078
299.083
299.084
299.087
299.088
299.088
299.092
299.091
299.087
299.083
299.09
299.085
299.096
299.104
299.109
299.114
299.118
299.121
299.123
299.127
299.134
299.134
299.132
299.135
299.138
299.134
299.133
299.133
299.131
299.126
299.125
299.116
299.117
299.109
299.104
299.103
299.102
299.099
299.096
299.097
299.094
299.091
299.087
299.091
299.084
299.094
299.097
299.097
299.097
299.09
299.088
299.082
299.079
299.075
299.066
299.062
299.06
299.059
299.067
299.075
299.083
299.088
299.083
299.084
299.074
299.083
299.08
299.079
299.077
299.079
299.079
299.076
299.072
299.064
299.067
299.066
299.067
299.076
299.082
299.092
299.094
299.098
299.104
299.104
299.105
299.108
299.103
299.104
299.094
299.101
299.108
299.107
299.11
299.108
299.107
299.107
299.101
299.111
299.12
299.122
299.122
299.123
299.119
299.11
299.114
299.117
299.115
299.109
299.1
299.094
299.087
299.085
299.088
299.088
299.088
299.094
299.097
299.1
299.11
299.112
299.113
299.114
299.116
299.115
299.115
299.111
299.109
299.106
299.096
299.104
299.105
299.107
299.109
299.108
299.102
299.103
299.1
299.097
299.091
299.086
299.084
299.077
299.079
299.077
299.077
299.07
299.071
299.063
299.067
299.067
299.077
299.081
299.087
299.092
299.09
299.087
299.088
299.078
299.08
299.083
299.082
299.083
299.082
299.082
299.082
299.075
299.069
299.068
299.074
299.075
299.077
299.083
299.08
299.078
299.078
299.077
299.073
299.077
299.08
299.08
299.08
299.087
299.09
299.093
299.095
299.1
299.096
299.091
299.092
299.089
299.087
299.08
299.086
299.089
299.096
299.094
299.101
299.103
299.106
299.108
299.109
299.114
299.114
299.116
299.117
299.114
299.115
299.119
299.114
299.116
299.118
299.113
299.113
299.111
299.104
299.096
299.096
299.095
299.095
299.102
299.103
299.107
299.109
299.109
299.104
299.099
299.095
299.09
299.088
299.08
299.076
299.064
299.069
299.075
299.088
299.096
299.098
299.101
299.096
299.091
299.085
299.081
299.077
299.069
299.061
299.067
299.071
299.074
299.077
299.077
299.077
299.075
299.083
299.094
299.098
299.102
299.104
299.107
299.106
299.104
299.1
299.105
299.109
299.114
299.119
299.118
299.117
299.119
299.109
299.105
299.092
299.081
299.084
299.081
299.08
299.079
299.07
299.057
299.056
299.054
299.045
299.048
299.057
299.061
299.065
299.074
299.079
299.09
299.094
299.1
299.102
299.11
299.117
299.115
299.118
299.117
299.115
299.112
299.108
299.102
299.099
299.089
299.099
299.101
299.101
299.103
299.101
299.101
299.104
299.098
299.097
299.093
299.091
299.095
299.092
299.09
299.09
299.086
299.085
299.077
299.073
299.063
299.065
299.063
299.062
299.072
299.082
299.081
299.081
299.086
299.091
299.09
299.088
299.083
299.087
299.089
299.087
299.084
299.082
299.071
299.081
299.079
299.091
299.101
299.105
299.101
299.102
299.097
299.094
299.092
299.099
299.109
299.114
299.114
291.791
291.801
291.81
291.831
291.829
291.861
291.828
291.88
291.834
291.901
291.861
291.913
291.879
291.931
291.899
291.95
291.946
291.939
291.994
291.953
292.025
292.012
292.057
292.084
292.093
292.138
292.143
292.175
292.204
292.299
292.324
292.395
292.485
292.535
292.625
292.693
292.773
292.872
292.953
293.053
293.135
293.214
293.375
293.525
293.676
293.808
293.895
294.137
294.337
294.549
294.771
294.967
295.204
295.4
295.612
295.819
296.014
296.232
296.419
296.623
296.806
296.999
297.187
297.364
297.534
297.691
297.839
297.967
298.097
298.218
298.325
298.428
298.502
298.57
298.622
298.663
298.712
298.742
298.769
298.784
298.79
298.794
298.785
298.786
298.776
298.786
298.786
298.792
298.784
298.782
298.779
298.769
298.765
298.76
298.749
298.73
298.734
298.74
298.751
298.749
298.765
298.776
298.769
298.776
298.783
298.781
298.77
298.768
298.761
298.76
298.763
298.758
298.763
298.769
298.759
298.764
298.767
298.767
298.769
298.768
298.778
298.776
298.793
298.805
298.799
298.813
298.818
298.82
298.822
298.817
298.812
298.817
298.814
298.817
298.82
298.824
298.832
298.834
298.829
298.826
298.818
298.804
298.794
298.782
298.784
298.778
298.773
298.767
298.762
298.772
298.774
298.777
298.785
298.794
298.801
298.805
298.802
298.788
298.797
298.794
298.795
298.8
298.796
298.809
298.807
298.808
298.809
298.806
298.796
298.807
298.813
298.819
298.828
298.829
298.828
298.829
298.84
298.845
298.847
298.851
298.855
298.849
298.841
298.848
298.85
298.848
298.841
298.838
298.826
298.828
298.813
298.817
298.814
298.8
298.799
298.804
298.807
298.803
298.805
298.808
298.806
298.799
298.805
298.81
298.816
298.818
298.811
298.817
298.809
298.806
298.791
298.778
298.776
298.773
298.774
298.779
298.789
298.799
298.803
298.803
298.804
298.791
298.79
298.779
298.786
298.784
298.781
298.782
298.785
298.785
298.784
298.784
298.777
298.777
298.779
298.789
298.801
298.799
298.806
298.807
298.809
298.817
298.825
298.822
298.819
298.803
298.804
298.807
298.81
298.822
298.826
298.832
298.824
298.816
298.816
298.822
298.828
298.84
298.845
298.838
298.833
298.833
298.827
298.823
298.823
298.823
298.821
298.801
298.783
298.796
298.798
298.798
298.799
298.8
298.813
298.825
298.824
298.829
298.83
298.828
298.828
298.827
298.824
298.823
298.819
298.805
298.807
298.809
298.82
298.827
298.824
298.817
298.818
298.799
298.8
298.798
298.801
298.8
298.792
298.786
298.779
298.78
298.775
298.782
298.773
298.771
298.764
298.758
298.779
298.8
298.804
298.799
298.804
298.807
298.797
298.803
298.8
298.799
298.799
298.799
298.792
298.788
298.778
298.777
298.775
298.776
298.776
298.786
298.79
298.781
298.786
298.785
298.783
298.787
298.793
298.784
298.778
298.78
298.791
298.798
298.806
298.81
298.81
298.798
298.8
298.805
298.804
298.801
298.796
298.798
298.796
298.799
298.798
298.811
298.816
298.824
298.827
298.826
298.824
298.819
298.826
298.828
298.823
298.827
298.824
298.821
298.83
298.825
298.822
298.825
298.817
298.806
298.805
298.803
298.797
298.803
298.811
298.812
298.819
298.824
298.826
298.821
298.817
298.811
298.806
298.804
298.8
298.797
298.779
298.763
298.756
298.782
298.8
298.812
298.818
298.814
298.817
298.812
298.801
298.784
298.771
298.77
298.77
298.775
298.783
298.786
298.788
298.787
298.79
298.788
298.8
298.807
298.821
298.83
298.834
298.828
298.82
298.814
298.807
298.814
298.827
298.836
298.838
298.84
298.837
298.823
298.825
298.815
298.808
298.796
298.788
298.795
298.8
298.792
298.789
298.782
298.772
298.766
298.771
298.77
298.767
298.772
298.781
298.784
298.8
298.805
298.817
298.821
298.826
298.824
298.821
298.833
298.834
298.837
298.83
298.822
298.814
298.811
298.803
298.806
298.802
298.81
298.817
298.817
298.821
298.823
298.815
298.813
298.808
298.804
298.8
298.797
298.802
298.804
298.799
298.793
298.786
298.789
298.776
298.769
298.773
298.777
298.777
298.781
298.781
298.795
298.801
298.803
298.803
298.808
298.807
298.804
298.804
298.8
298.796
298.791
298.776
298.777
298.78
298.8
298.81
298.812
298.815
298.816
298.8
298.802
298.797
298.797
298.813
298.824
298.829
298.842
290.989
290.969
291.017
290.971
291.034
290.989
291.051
291.018
291.047
291.038
291.036
291.059
291.046
291.076
291.067
291.102
291.09
291.128
291.118
291.145
291.164
291.163
291.222
291.194
291.282
291.259
291.29
291.235
291.358
291.435
291.5
291.548
291.639
291.695
291.754
291.819
291.949
292.046
292.164
292.228
292.331
292.337
292.558
292.735
292.886
293.068
293.122
293.351
293.596
293.845
294.078
294.298
294.499
294.738
294.973
295.226
295.443
295.672
295.914
296.124
296.344
296.543
296.742
296.942
297.119
297.272
297.395
297.569
297.716
297.849
297.964
298.057
298.144
298.209
298.261
298.306
298.341
298.378
298.402
298.416
298.415
298.38
298.402
298.378
298.409
298.414
298.423
298.412
298.417
298.414
298.403
298.394
298.383
298.37
298.347
298.296
298.331
298.35
298.323
298.37
298.386
298.389
298.403
298.402
298.399
298.398
298.397
298.39
298.389
298.376
298.343
298.351
298.375
298.378
298.385
298.382
298.376
298.367
298.38
298.39
298.392
298.405
298.41
298.414
298.43
298.436
298.439
298.431
298.413
298.432
298.441
298.433
298.435
298.434
298.441
298.448
298.445
298.444
298.45
298.448
298.436
298.416
298.39
298.385
298.362
298.383
298.387
298.375
298.364
298.336
298.39
298.402
298.368
298.412
298.428
298.433
298.425
298.409
298.371
298.399
298.41
298.407
298.415
298.405
298.415
298.419
298.406
298.392
298.408
298.378
298.417
298.438
298.44
298.443
298.441
298.429
298.442
298.461
298.471
298.478
298.473
298.472
298.472
298.467
298.467
298.467
298.467
298.453
298.447
298.431
298.439
298.431
298.423
298.421
298.404
298.417
298.42
298.42
298.423
298.415
298.398
298.408
298.378
298.429
298.445
298.441
298.441
298.427
298.427
298.415
298.413
298.404
298.391
298.383
298.371
298.348
298.384
298.409
298.427
298.434
298.425
298.414
298.366
298.397
298.401
298.395
298.377
298.384
298.406
298.411
298.395
298.364
298.384
298.385
298.358
298.397
298.405
298.419
298.42
298.422
298.42
298.437
298.442
298.449
298.44
298.426
298.377
298.414
298.423
298.441
298.452
298.446
298.448
298.434
298.4
298.447
298.467
298.473
298.474
298.472
298.45
298.418
298.436
298.453
298.457
298.45
298.428
298.412
298.358
298.403
298.425
298.431
298.426
298.43
298.432
298.433
298.446
298.448
298.447
298.447
298.443
298.431
298.446
298.445
298.428
298.413
298.372
298.417
298.429
298.432
298.438
298.44
298.42
298.422
298.417
298.417
298.41
298.401
298.392
298.373
298.387
298.388
298.385
298.379
298.377
298.336
298.36
298.321
298.392
298.407
298.418
298.428
298.425
298.414
298.415
298.384
298.403
298.412
298.417
298.414
298.417
298.415
298.409
298.393
298.367
298.364
298.39
298.399
298.404
298.407
298.402
298.405
298.409
298.406
298.401
298.41
298.409
298.402
298.401
298.415
298.426
298.433
298.429
298.431
298.419
298.422
298.424
298.421
298.412
298.38
298.408
298.419
298.423
298.421
298.435
298.436
298.438
298.43
298.424
298.432
298.437
298.444
298.443
298.422
298.438
298.447
298.444
298.444
298.434
298.438
298.441
298.438
298.421
298.402
298.405
298.402
298.41
298.424
298.422
298.443
298.456
298.459
298.443
298.423
298.429
298.43
298.425
298.417
298.397
298.33
298.321
298.392
298.432
298.448
298.453
298.455
298.448
298.437
298.426
298.414
298.401
298.385
298.348
298.39
298.405
298.415
298.415
298.417
298.402
298.363
298.407
298.436
298.442
298.441
298.443
298.456
298.456
298.432
298.385
298.426
298.443
298.454
298.463
298.464
298.453
298.448
298.447
298.444
298.416
298.365
298.404
298.421
298.426
298.432
298.409
298.364
298.376
298.371
298.348
298.369
298.386
298.387
298.374
298.404
298.419
298.44
298.443
298.449
298.447
298.451
298.458
298.454
298.46
298.45
298.45
298.441
298.433
298.425
298.412
298.37
298.414
298.43
298.435
298.439
298.442
298.437
298.441
298.432
298.423
298.411
298.399
298.386
298.413
298.423
298.431
298.423
298.415
298.406
298.395
298.345
298.382
298.38
298.351
298.391
298.414
298.413
298.409
298.406
298.428
298.434
298.423
298.384
298.414
298.425
298.422
298.404
298.382
298.342
298.387
298.384
298.414
298.44
298.444
298.434
298.426
298.388
298.395
298.366
298.413
298.439
298.46
298.453
289.983
290.002
290.003
290.039
290.031
290.049
290.047
290.042
290.069
290.054
290.095
290.071
290.109
290.079
290.122
290.101
290.131
290.147
290.131
290.181
290.162
290.225
290.235
290.262
290.279
290.304
290.344
290.256
290.41
290.458
290.552
290.631
290.702
290.799
290.834
290.81
291.011
291.156
291.243
291.297
291.458
291.486
291.67
291.845
291.998
292.282
292.468
292.531
292.782
292.996
293.275
293.481
293.638
293.902
294.203
294.508
294.713
295.018
295.283
295.54
295.759
295.953
296.196
296.422
296.63
296.802
296.89
297.093
297.261
297.398
297.515
297.622
297.716
297.782
297.822
297.815
297.885
297.942
297.979
298.002
297.996
297.931
297.969
297.925
297.946
297.98
297.984
297.984
297.985
297.979
297.965
297.934
297.92
297.929
297.918
297.853
297.868
297.903
297.853
297.892
297.945
297.958
297.93
297.959
297.968
297.958
297.942
297.942
297.923
297.921
297.861
297.863
297.929
297.937
297.894
297.932
297.932
297.886
297.933
297.938
297.944
297.914
297.964
297.974
297.949
297.997
298.005
297.993
297.945
297.986
297.993
297.992
297.975
297.99
298.005
298.01
298.014
298.003
298.006
298.008
297.997
297.972
297.91
297.914
297.885
297.943
297.936
297.896
297.875
297.86
297.944
297.958
297.922
297.972
297.976
297.987
297.974
297.919
297.886
297.941
297.932
297.941
297.924
297.956
297.97
297.977
297.972
297.924
297.946
297.911
297.977
297.992
298.001
298.002
297.984
297.927
297.989
298.009
298.024
298.028
298.031
298.018
297.989
298.017
298.025
298.026
298.011
297.995
297.959
297.967
297.942
297.966
297.962
297.922
297.892
297.952
297.963
297.932
297.966
297.967
297.918
297.954
297.919
297.99
298.005
298.002
297.979
297.987
297.982
297.972
297.954
297.917
297.908
297.903
297.918
297.88
297.946
297.966
297.988
297.987
297.976
297.951
297.888
297.904
297.943
297.926
297.865
297.882
297.946
297.967
297.96
297.903
297.949
297.956
297.915
297.961
297.96
297.938
297.962
297.948
297.92
297.979
298.006
298.004
297.992
297.951
297.913
297.961
297.936
297.989
298.002
298.017
298.007
297.991
297.948
297.994
298.006
298.036
298.042
298.025
297.996
297.93
297.983
297.994
297.999
297.998
297.993
297.967
297.925
297.971
297.977
297.964
297.951
297.946
297.975
297.996
297.998
298
297.988
297.977
297.977
297.939
297.979
297.986
297.977
297.935
297.889
297.948
297.969
297.987
297.988
297.973
297.96
297.911
297.924
297.938
297.94
297.945
297.93
297.876
297.906
297.913
297.881
297.927
297.924
297.875
297.927
297.883
297.952
297.976
297.973
297.951
297.964
297.972
297.952
297.898
297.943
297.959
297.953
297.965
297.951
297.951
297.913
297.924
297.869
297.863
297.911
297.947
297.951
297.915
297.945
297.942
297.929
297.941
297.939
297.934
297.905
297.914
297.917
297.956
297.979
297.986
297.978
297.933
297.917
297.966
297.985
297.985
297.97
297.921
297.967
297.961
297.926
297.944
297.97
297.993
297.99
297.986
297.97
297.934
297.976
297.99
297.974
297.927
297.965
297.953
297.989
297.981
297.942
297.977
297.974
297.94
297.945
297.908
297.913
297.914
297.961
297.97
297.942
297.995
298.013
298.012
298.001
297.944
297.986
297.989
297.958
297.987
297.966
297.895
297.896
297.965
297.992
298.008
298.005
297.985
297.999
297.998
297.973
297.929
297.902
297.928
297.894
297.946
297.956
297.964
297.96
297.946
297.953
297.914
297.975
297.988
298.001
298.012
298.016
298.01
298.005
297.994
297.938
297.988
298.001
298.018
298.02
298.014
298.005
297.961
297.998
297.99
297.967
297.898
297.927
297.966
297.995
297.992
297.979
297.909
297.945
297.935
297.874
297.927
297.924
297.925
297.881
297.93
297.975
297.987
297.998
297.998
298
297.991
297.971
298.006
298.014
298.019
298.004
297.98
297.949
297.966
297.94
297.869
297.94
297.974
297.99
297.994
297.994
297.993
297.98
297.972
297.972
297.959
297.908
297.873
297.944
297.956
297.959
297.962
297.927
297.963
297.953
297.899
297.942
297.937
297.894
297.947
297.943
297.967
297.967
297.926
297.977
298.002
297.996
297.934
297.981
297.973
297.975
297.961
297.891
297.868
297.921
297.905
297.973
297.989
297.994
297.983
297.932
297.885
297.942
297.915
297.971
298.003
298.007
298.02
288.937
288.952
288.945
288.972
288.954
288.964
288.95
288.953
288.968
288.965
288.992
288.985
289.005
288.993
289.017
289.01
289.032
289.038
289.042
289.067
289.072
289.111
289.129
289.155
289.168
289.217
289.287
289.418
289.359
289.405
289.431
289.555
289.615
289.713
289.832
289.838
289.977
290.114
290.299
290.461
290.617
290.744
290.782
290.975
291.13
291.425
291.624
291.675
291.875
292.111
292.433
292.62
292.846
293.104
293.392
293.765
293.958
294.27
294.612
294.883
295.105
295.262
295.576
295.849
296.077
296.287
296.444
296.577
296.762
296.915
297.037
297.149
297.233
297.308
297.325
297.308
297.371
297.468
297.5
297.529
297.545
297.565
297.556
297.539
297.478
297.496
297.502
297.466
297.494
297.494
297.469
297.399
297.377
297.411
297.434
297.46
297.443
297.484
297.496
297.435
297.47
297.447
297.415
297.464
297.469
297.452
297.418
297.415
297.389
297.453
297.462
297.421
297.45
297.421
297.379
297.418
297.419
297.411
297.443
297.418
297.445
297.401
297.456
297.447
297.432
297.49
297.513
297.504
297.495
297.509
297.517
297.496
297.487
297.49
297.511
297.513
297.475
297.446
297.476
297.508
297.5
297.465
297.439
297.426
297.475
297.475
297.477
297.433
297.429
297.5
297.513
297.528
297.527
297.511
297.461
297.506
297.496
297.433
297.477
297.467
297.4
297.432
297.367
297.398
297.434
297.475
297.464
297.492
297.511
297.514
297.494
297.497
297.47
297.473
297.484
297.424
297.466
297.494
297.498
297.528
297.524
297.516
297.465
297.511
297.527
297.522
297.505
297.475
297.404
297.416
297.403
297.466
297.465
297.406
297.397
297.46
297.463
297.424
297.481
297.489
297.461
297.509
297.543
297.538
297.526
297.486
297.448
297.45
297.475
297.444
297.466
297.407
297.414
297.377
297.417
297.453
297.445
297.434
297.485
297.49
297.456
297.499
297.485
297.423
297.459
297.418
297.381
297.406
297.474
297.495
297.493
297.495
297.467
297.494
297.508
297.495
297.441
297.429
297.464
297.421
297.42
297.482
297.494
297.524
297.516
297.467
297.505
297.502
297.456
297.51
297.52
297.498
297.519
297.51
297.53
297.544
297.511
297.554
297.561
297.553
297.512
297.449
297.478
297.491
297.498
297.5
297.475
297.501
297.505
297.497
297.505
297.489
297.432
297.43
297.473
297.456
297.47
297.478
297.445
297.434
297.48
297.461
297.503
297.497
297.446
297.411
297.466
297.475
297.438
297.469
297.482
297.46
297.418
297.369
297.381
297.412
297.397
297.413
297.427
297.396
297.396
297.413
297.35
297.4
297.45
297.492
297.496
297.524
297.495
297.46
297.466
297.429
297.459
297.438
297.481
297.487
297.435
297.47
297.423
297.453
297.42
297.454
297.405
297.447
297.405
297.397
297.405
297.439
297.448
297.394
297.424
297.44
297.416
297.44
297.395
297.442
297.383
297.398
297.43
297.464
297.466
297.489
297.473
297.408
297.412
297.473
297.476
297.48
297.497
297.506
297.496
297.472
297.389
297.395
297.472
297.485
297.48
297.438
297.411
297.393
297.465
297.492
297.488
297.455
297.48
297.437
297.484
297.482
297.443
297.479
297.477
297.421
297.455
297.423
297.406
297.421
297.451
297.482
297.471
297.519
297.541
297.54
297.519
297.471
297.501
297.501
297.482
297.52
297.525
297.52
297.511
297.493
297.527
297.529
297.523
297.477
297.52
297.511
297.484
297.398
297.389
297.462
297.485
297.481
297.444
297.466
297.443
297.438
297.489
297.5
297.478
297.503
297.505
297.483
297.482
297.523
297.53
297.527
297.535
297.507
297.48
297.511
297.536
297.528
297.504
297.451
297.504
297.509
297.481
297.517
297.47
297.497
297.53
297.544
297.522
297.507
297.45
297.435
297.456
297.423
297.412
297.45
297.417
297.425
297.479
297.506
297.513
297.514
297.496
297.485
297.433
297.492
297.51
297.486
297.502
297.465
297.452
297.48
297.463
297.398
297.458
297.486
297.479
297.481
297.486
297.485
297.485
297.444
297.474
297.457
297.431
297.399
297.462
297.435
297.477
297.464
297.423
297.466
297.497
297.503
297.473
297.445
297.488
297.478
297.438
297.474
297.46
297.448
297.497
297.523
297.532
297.54
297.507
297.46
297.485
297.472
297.423
297.466
297.475
297.468
297.458
297.499
297.494
297.489
297.429
297.429
297.495
297.501
297.465
297.502
297.513
297.484
288.056
288.03
288.056
288.001
288.036
287.992
288.026
288.002
288.011
288.012
287.995
288.029
288.002
288.039
288.015
288.045
288.038
288.052
288.067
288.061
288.101
288.086
288.122
288.128
288.176
288.205
288.252
288.419
288.333
288.373
288.412
288.466
288.555
288.635
288.788
288.954
288.956
289.05
289.213
289.423
289.586
289.744
289.852
290.038
290.307
290.516
290.761
290.807
290.99
291.257
291.569
291.98
292.263
292.495
292.705
293.053
293.361
293.561
293.887
294.201
294.454
294.598
294.883
295.191
295.419
295.712
295.919
296.036
296.227
296.372
296.448
296.579
296.723
296.822
296.887
296.957
296.925
296.975
296.968
297.024
297.027
297.082
297.076
297.089
297.055
296.991
296.998
296.943
296.973
296.987
296.963
296.894
296.871
296.87
296.917
297.002
297.01
297.022
297.042
297.029
296.999
296.934
296.939
296.97
296.967
296.924
296.928
296.879
296.877
296.96
297.01
297.013
296.995
296.935
296.959
296.905
296.918
296.979
296.976
296.919
296.954
296.999
296.979
296.931
296.962
296.999
297.005
296.985
296.987
296.998
297.001
296.972
296.978
296.991
297.009
296.987
296.924
296.912
296.984
296.991
296.972
296.949
296.973
296.964
297.012
297.005
296.982
296.986
297
297.015
297.014
297.011
297.051
297.02
296.952
296.995
297.002
296.981
297.015
296.991
296.918
296.914
296.877
296.868
296.907
296.96
296.946
297.01
296.995
297.025
296.972
296.968
296.925
296.917
296.975
296.996
296.924
296.933
296.925
296.992
296.982
296.995
296.958
296.991
296.99
296.987
296.942
296.939
296.884
296.878
296.931
296.948
296.966
296.954
296.981
296.946
296.96
296.926
296.969
296.99
297.018
297.002
297.055
297.048
297.021
296.955
296.951
296.917
296.959
296.911
296.964
296.976
296.941
296.896
296.89
296.953
296.918
296.917
296.982
296.947
296.934
296.972
297.029
297.028
296.984
296.954
296.994
296.98
296.981
296.983
296.992
297.005
296.963
297.016
297.038
297.008
296.939
296.98
296.98
296.94
296.978
296.982
296.95
296.99
297.001
297.028
297.047
297.023
297.013
296.976
296.958
296.943
296.996
297.031
297.067
297.057
297.067
297.06
297.048
297.029
297.001
296.937
296.959
296.918
296.924
296.949
296.926
296.975
297.002
296.973
296.989
296.958
296.933
296.957
296.957
296.89
296.902
296.959
296.922
296.917
296.98
296.994
296.973
296.962
296.895
296.896
296.969
296.952
296.913
296.919
296.947
296.896
296.878
296.909
296.925
296.867
296.867
296.89
296.938
296.939
296.931
296.912
296.85
296.859
296.912
296.989
297
296.984
296.978
296.928
296.956
296.96
296.918
296.888
296.943
296.977
296.931
296.962
296.927
296.949
296.914
296.97
297.005
296.994
296.981
296.975
296.947
296.927
296.961
296.961
296.907
296.93
296.914
296.909
296.866
296.918
296.976
296.971
296.958
296.955
296.936
296.971
296.958
296.996
297
296.968
296.95
296.948
296.991
297.017
297.008
296.969
296.896
296.881
296.935
296.962
296.942
296.877
296.846
296.87
296.944
296.959
296.945
296.982
296.99
297.009
296.987
296.954
296.958
296.952
296.947
296.981
296.967
296.96
296.946
296.939
296.939
296.992
297.011
297.006
297.01
296.998
297.029
297.038
297.019
297.029
297.045
297.055
297.057
297.046
296.98
296.949
297
297.014
296.997
297.02
297.019
297.013
296.976
296.922
296.966
296.961
297.003
296.985
296.934
296.974
296.95
296.972
296.998
297.007
296.936
296.963
296.966
296.923
296.915
296.975
296.976
297.017
297.021
296.991
296.941
296.987
296.99
296.973
296.974
296.968
296.997
296.965
296.976
297.038
297.052
297.041
297.05
297.027
297.046
297.025
296.928
296.905
296.964
296.906
296.929
296.97
296.977
296.967
296.982
296.961
296.967
296.965
296.936
296.953
296.926
296.98
296.982
296.931
296.977
296.994
296.987
296.989
296.955
296.889
296.923
296.963
296.942
296.941
296.96
296.937
296.934
296.922
296.956
296.983
296.976
297.008
296.962
296.934
296.949
296.979
296.994
296.947
297
297.012
296.947
296.943
297.008
296.992
296.954
296.973
296.946
296.984
296.974
297.025
297.046
297.054
297.021
296.955
296.984
296.989
297.013
297.014
296.958
296.969
296.902
296.955
296.924
296.983
297.01
297.045
297.032
297.022
296.951
296.98
296.951
296.911
287.217
287.22
287.202
287.215
287.184
287.21
287.157
287.201
287.151
287.202
287.17
287.189
287.178
287.191
287.182
287.195
287.202
287.185
287.225
287.197
287.231
287.241
287.236
287.29
287.261
287.324
287.35
287.411
287.435
287.424
287.538
287.529
287.651
287.716
287.805
287.981
287.959
288.117
288.217
288.384
288.556
288.689
288.879
289.049
289.292
289.484
289.764
290.092
290.206
290.395
290.678
291.137
291.448
291.741
292.021
292.268
292.623
292.841
293.126
293.41
293.692
294.014
294.227
294.562
294.774
295.098
295.332
295.504
295.681
295.828
295.869
295.981
296.151
296.311
296.403
296.451
296.502
296.5
296.462
296.519
296.519
296.572
296.534
296.588
296.587
296.507
296.482
296.461
296.433
296.458
296.456
296.414
296.431
296.396
296.461
296.512
296.531
296.535
296.545
296.539
296.49
296.5
296.489
296.443
296.42
296.41
296.432
296.404
296.396
296.452
296.532
296.549