/*--------------------------------*- C++ -*----------------------------------*\
| =========                 |                                                 |
| \\      /  F ield         | OpenFOAM: The Open Source CFD Toolbox           |
|  \\    /   O peration     | Version:  v2012                                 |
|   \\  /    A nd           | Website:  www.openfoam.com                      |
|    \\/     M anipulation  |                                                 |
\*---------------------------------------------------------------------------*/
FoamFile
{
    version     2.0;
    format      ascii;
    class       volScalarField;
    location    "250";
    object      theta;
}
// * * * * * * * * * * * * * * * * * * * * * * * * * * * * * * * * * * * * * //

dimensions      [0 0 0 1 0 0 0];


internalField   nonuniform List<scalar> 
65536
(
-6.66914
-6.66598
-6.6425
-6.63826
-6.61582
-6.62122
-6.59847
-6.60539
-6.58335
-6.58224
-6.567
-6.56203
-6.55026
-6.54668
-6.53104
-6.52216
-6.51088
-6.49306
-6.49253
-6.46413
-6.45371
-6.42288
-6.39571
-6.37908
-6.34286
-6.32168
-6.27858
-6.24273
-6.21226
-6.17377
-6.10943
-6.05547
-5.99303
-5.91956
-5.86215
-5.78676
-5.69463
-5.60487
-5.52106
-5.41215
-5.32275
-5.20954
-5.09774
-4.97392
-4.835
-4.69082
-4.54484
-4.36065
-4.18705
-3.98749
-3.78434
-3.59201
-3.39772
-3.21041
-3.06194
-3.01083
-2.91081
-2.81701
-2.69452
-2.53831
-2.37795
-2.21514
-2.05661
-1.89887
-1.74562
-1.59812
-1.45487
-1.32638
-1.20554
-1.09554
-0.996461
-0.906685
-0.829956
-0.763792
-0.708994
-0.663134
-0.623283
-0.593281
-0.570576
-0.554602
-0.545245
-0.538494
-0.538775
-0.539521
-0.542053
-0.543868
-0.545191
-0.547287
-0.550126
-0.552395
-0.555727
-0.559511
-0.562358
-0.567137
-0.571874
-0.573329
-0.574005
-0.572414
-0.567299
-0.565622
-0.5604
-0.556873
-0.55591
-0.554198
-0.553483
-0.553876
-0.555667
-0.55736
-0.558909
-0.559824
-0.559071
-0.561539
-0.560156
-0.558121
-0.559245
-0.558814
-0.558864
-0.558008
-0.555774
-0.553586
-0.549018
-0.543954
-0.537024
-0.530215
-0.525407
-0.519651
-0.516523
-0.514954
-0.513981
-0.514773
-0.516183
-0.515599
-0.514972
-0.513362
-0.511138
-0.507564
-0.504188
-0.503353
-0.505029
-0.508402
-0.513587
-0.521435
-0.528806
-0.535459
-0.539705
-0.544971
-0.547463
-0.549112
-0.549365
-0.545592
-0.544174
-0.540643
-0.535427
-0.532033
-0.527586
-0.524987
-0.523657
-0.52574
-0.524344
-0.525597
-0.52439
-0.524294
-0.52286
-0.522159
-0.521776
-0.520767
-0.519568
-0.518242
-0.517966
-0.513583
-0.511215
-0.507145
-0.503165
-0.500011
-0.496851
-0.493773
-0.489511
-0.485876
-0.483928
-0.481786
-0.48029
-0.480815
-0.481938
-0.481265
-0.481714
-0.482824
-0.485175
-0.488432
-0.492982
-0.495822
-0.500716
-0.503261
-0.507075
-0.511053
-0.514416
-0.515624
-0.516623
-0.518542
-0.519198
-0.52008
-0.520147
-0.520839
-0.51798
-0.518325
-0.517306
-0.517747
-0.519318
-0.521296
-0.52545
-0.53003
-0.535745
-0.541078
-0.544086
-0.545856
-0.545475
-0.542493
-0.539038
-0.534417
-0.531092
-0.529156
-0.527488
-0.529385
-0.528928
-0.531877
-0.531288
-0.531704
-0.532657
-0.534734
-0.535843
-0.538139
-0.541249
-0.542896
-0.543911
-0.541679
-0.537504
-0.532886
-0.527345
-0.523553
-0.51864
-0.514963
-0.513224
-0.509949
-0.508343
-0.508342
-0.508848
-0.511631
-0.510377
-0.510687
-0.509833
-0.506896
-0.506249
-0.505617
-0.505647
-0.505999
-0.503051
-0.501353
-0.498366
-0.494494
-0.491782
-0.492342
-0.493701
-0.493823
-0.497169
-0.49926
-0.501778
-0.505226
-0.509817
-0.515749
-0.52014
-0.522682
-0.524228
-0.524128
-0.522765
-0.520706
-0.516324
-0.510537
-0.506864
-0.502321
-0.499288
-0.497444
-0.497796
-0.498686
-0.499337
-0.500546
-0.503588
-0.505838
-0.504917
-0.50637
-0.504604
-0.503616
-0.503722
-0.504748
-0.506576
-0.509586
-0.513156
-0.515839
-0.517629
-0.520641
-0.523864
-0.525514
-0.529473
-0.531618
-0.534289
-0.53487
-0.537744
-0.537331
-0.537224
-0.533905
-0.531117
-0.526806
-0.52453
-0.523136
-0.522431
-0.523013
-0.5255
-0.526461
-0.529117
-0.530728
-0.531286
-0.532007
-0.532448
-0.534029
-0.536602
-0.537652
-0.53808
-0.538274
-0.537512
-0.534897
-0.533841
-0.534778
-0.534236
-0.53437
-0.534551
-0.534334
-0.533225
-0.533895
-0.53437
-0.532709
-0.529975
-0.526562
-0.521824
-0.519248
-0.518335
-0.519915
-0.521189
-0.52156
-0.524156
-0.526035
-0.527643
-0.526677
-0.526024
-0.523103
-0.520658
-0.515028
-0.511332
-0.507394
-0.504501
-0.502254
-0.500625
-0.499848
-0.49774
-0.496793
-0.496469
-0.496513
-0.496549
-0.4973
-0.496279
-0.497098
-0.499068
-0.499961
-0.502908
-0.506732
-0.509895
-0.512174
-0.514065
-0.513365
-0.511002
-0.509855
-0.507945
-0.507439
-0.507888
-0.510247
-0.513434
-0.517426
-0.52016
-0.523159
-0.526819
-0.529824
-0.534707
-0.53668
-0.538028
-0.531911
-0.525933
-0.520758
-0.517427
-0.517734
-0.520033
-0.524421
-0.529996
-0.536368
-0.5422
-0.545457
-0.545666
-0.545891
-0.543839
-0.541347
-0.539353
-0.536448
-0.534088
-0.529715
-0.525605
-0.521176
-0.516049
-0.51227
-0.509487
-0.508341
-0.508191
-0.509142
-0.508719
-0.506913
-0.503327
-0.500054
-0.498036
-0.496931
-0.497975
-0.501431
-0.504815
-0.511221
-0.517193
-0.522259
-0.528724
-0.531413
-0.534418
-0.538763
-0.543761
-0.548511
-0.55488
-0.559051
-0.558594
-0.558131
-0.55617
-0.552439
-0.547329
-0.541001
-0.534146
-0.528278
-0.521783
-0.516335
-0.510903
-0.507269
-0.504456
-0.500519
-0.499118
-0.499377
-0.500838
-0.503783
-0.506865
-0.50896
-0.511345
-0.510346
-0.51296
-0.512006
-0.511044
-0.51092
-0.510429
-0.511272
-0.51298
-0.513499
-0.515171
-0.516241
-0.517562
-0.519576
-0.518885
-0.520269
-0.523837
-0.527404
-0.532517
-0.536186
-0.539875
-0.541322
-0.543543
-0.543098
-0.540985
-0.539552
-0.53711
-0.53269
-0.528998
-0.527267
-0.52535
-0.523494
-0.523407
-0.523131
-0.525223
-0.526492
-0.527696
-0.529424
-0.530772
-0.527402
-0.526156
-0.520071
-0.517476
-0.51498
-0.513382
-0.512468
-0.514555
-0.515787
-0.515207
-0.513015
-0.509746
-0.505519
-0.501407
-0.499007
-6.74496
-6.72864
-6.74961
-6.7123
-6.73372
-6.69676
-6.70467
-6.68545
-6.67645
-6.68426
-6.65402
-6.67239
-6.63764
-6.65241
-6.62139
-6.63259
-6.60295
-6.60034
-6.58334
-6.56357
-6.55628
-6.518
-6.52017
-6.4637
-6.46567
-6.41226
-6.39943
-6.37436
-6.31662
-6.27085
-6.22515
-6.152
-6.1127
-6.04099
-5.95687
-5.8913
-5.80342
-5.71354
-5.61202
-5.53026
-5.41898
-5.31395
-5.19938
-5.0692
-4.92225
-4.77389
-4.63561
-4.48076
-4.24603
-4.03439
-3.8286
-3.62993
-3.43808
-3.25392
-3.07882
-2.91333
-2.76834
-2.6084
-2.44075
-2.27727
-2.08912
-1.91477
-1.74261
-1.57953
-1.42165
-1.27607
-1.13621
-0.993852
-0.871343
-0.754428
-0.65129
-0.564824
-0.481581
-0.414165
-0.35592
-0.309723
-0.278605
-0.245089
-0.221632
-0.205524
-0.196595
-0.201405
-0.195828
-0.199984
-0.19338
-0.193316
-0.193873
-0.196289
-0.195557
-0.20078
-0.205068
-0.208035
-0.217098
-0.222204
-0.227834
-0.236249
-0.23518
-0.231071
-0.232862
-0.215603
-0.213218
-0.209712
-0.200409
-0.201193
-0.204298
-0.206326
-0.203273
-0.205219
-0.207397
-0.212535
-0.221906
-0.214185
-0.213058
-0.213855
-0.205824
-0.207182
-0.208163
-0.208794
-0.20707
-0.200509
-0.199165
-0.191255
-0.189015
-0.184284
-0.171605
-0.170109
-0.165544
-0.165228
-0.169175
-0.165958
-0.162911
-0.169356
-0.169862
-0.167459
-0.161039
-0.157813
-0.157751
-0.156135
-0.154002
-0.157686
-0.165061
-0.171862
-0.183903
-0.191517
-0.202918
-0.20044
-0.202275
-0.204248
-0.20387
-0.210251
-0.198946
-0.193868
-0.19446
-0.183278
-0.177743
-0.17505
-0.177381
-0.174679
-0.186374
-0.180954
-0.18057
-0.177683
-0.176034
-0.175802
-0.172079
-0.172958
-0.177317
-0.181133
-0.174478
-0.17881
-0.16777
-0.160282
-0.155481
-0.150075
-0.146144
-0.142881
-0.14136
-0.137276
-0.1304
-0.130051
-0.132262
-0.129514
-0.125827
-0.130229
-0.130866
-0.131619
-0.133402
-0.137868
-0.139226
-0.148668
-0.146805
-0.155565
-0.1604
-0.161164
-0.162106
-0.165496
-0.168285
-0.167373
-0.170069
-0.173578
-0.177297
-0.173654
-0.17989
-0.169827
-0.167206
-0.167062
-0.167044
-0.174481
-0.176091
-0.18266
-0.185065
-0.189
-0.19826
-0.202044
-0.204097
-0.205389
-0.197045
-0.188858
-0.181262
-0.176264
-0.181368
-0.179892
-0.189829
-0.180846
-0.183939
-0.185343
-0.187143
-0.185053
-0.185466
-0.187864
-0.192489
-0.200408
-0.197621
-0.197935
-0.197204
-0.188235
-0.182652
-0.172269
-0.17002
-0.166514
-0.160558
-0.160186
-0.158908
-0.156688
-0.161075
-0.159786
-0.170202
-0.163609
-0.156717
-0.157544
-0.154068
-0.156676
-0.156962
-0.156794
-0.162818
-0.153721
-0.144426
-0.141904
-0.142593
-0.1408
-0.145006
-0.154714
-0.149988
-0.147267
-0.149341
-0.155064
-0.164385
-0.170006
-0.176964
-0.178958
-0.175769
-0.176306
-0.176471
-0.170657
-0.167146
-0.164507
-0.153973
-0.152223
-0.150763
-0.15005
-0.148327
-0.148771
-0.149182
-0.153331
-0.155363
-0.158017
-0.168184
-0.159856
-0.159046
-0.157075
-0.155018
-0.156133
-0.162129
-0.16139
-0.164206
-0.16697
-0.173294
-0.177951
-0.18053
-0.187528
-0.184848
-0.187706
-0.187662
-0.194542
-0.19329
-0.201005
-0.197276
-0.197372
-0.187106
-0.183013
-0.177089
-0.172685
-0.173942
-0.176874
-0.176588
-0.186388
-0.183943
-0.181496
-0.182059
-0.18165
-0.181949
-0.182441
-0.181768
-0.188988
-0.195708
-0.196383
-0.190069
-0.189361
-0.187167
-0.181228
-0.184198
-0.185895
-0.185997
-0.186933
-0.19116
-0.187178
-0.18416
-0.184092
-0.184077
-0.177474
-0.174577
-0.170786
-0.168986
-0.164698
-0.167761
-0.173329
-0.172427
-0.174929
-0.177606
-0.184499
-0.178404
-0.175371
-0.168414
-0.170113
-0.163579
-0.160947
-0.158162
-0.155879
-0.154758
-0.150607
-0.15016
-0.147881
-0.146799
-0.15008
-0.148754
-0.145527
-0.149794
-0.147869
-0.146685
-0.151296
-0.151577
-0.153387
-0.160668
-0.168427
-0.168325
-0.169576
-0.168861
-0.162192
-0.161295
-0.157036
-0.155622
-0.155234
-0.159994
-0.164843
-0.169398
-0.173835
-0.176509
-0.184146
-0.188499
-0.199846
-0.195483
-0.189543
-0.176688
-0.168111
-0.166294
-0.163722
-0.168388
-0.173475
-0.179496
-0.183582
-0.187243
-0.195482
-0.203692
-0.197252
-0.193372
-0.190628
-0.187508
-0.187248
-0.187729
-0.189194
-0.180831
-0.169751
-0.166199
-0.162524
-0.160384
-0.157306
-0.157779
-0.160613
-0.164576
-0.158824
-0.154898
-0.150635
-0.145617
-0.14668
-0.147663
-0.145545
-0.154926
-0.159449
-0.171772
-0.183609
-0.179901
-0.182914
-0.183949
-0.184876
-0.194568
-0.207096
-0.207932
-0.209798
-0.219661
-0.215806
-0.207709
-0.203161
-0.199571
-0.190508
-0.184816
-0.173987
-0.170196
-0.164608
-0.161798
-0.154412
-0.147596
-0.149528
-0.146696
-0.147576
-0.149581
-0.151827
-0.155773
-0.161793
-0.165085
-0.175622
-0.164766
-0.163487
-0.163133
-0.161067
-0.162931
-0.162939
-0.160652
-0.166135
-0.167237
-0.171114
-0.173476
-0.16913
-0.172117
-0.173944
-0.174273
-0.178297
-0.179542
-0.186871
-0.191175
-0.201488
-0.199617
-0.201047
-0.202151
-0.192443
-0.182571
-0.18332
-0.182781
-0.178532
-0.173011
-0.174144
-0.175841
-0.181638
-0.176948
-0.175423
-0.177152
-0.180375
-0.182329
-0.192862
-0.183496
-0.184933
-0.173043
-0.162843
-0.159429
-0.163701
-0.161822
-0.167696
-0.170484
-0.17208
-0.164867
-0.155671
-0.150011
-0.150413
-6.98307
-6.97275
-6.96337
-6.94292
-6.94456
-6.91312
-6.94597
-6.89393
-6.93989
-6.87277
-6.91281
-6.86061
-6.8943
-6.84263
-6.87437
-6.82378
-6.82789
-6.83483
-6.7794
-6.82088
-6.74858
-6.76223
-6.71632
-6.69014
-6.68048
-6.63577
-6.63055
-6.5984
-6.57012
-6.47447
-6.45004
-6.3785
-6.28865
-6.23825
-6.14914
-6.0804
-6.00124
-5.90139
-5.82064
-5.72066
-5.63846
-5.55929
-5.39887
-5.24846
-5.09744
-4.96624
-4.87869
-4.63645
-4.43709
-4.22459
-4.00282
-3.80671
-3.56936
-3.3741
-3.16198
-2.95446
-2.76015
-2.54135
-2.35455
-2.15099
-1.96739
-1.77473
-1.58676
-1.40979
-1.24001
-1.08245
-0.934375
-0.80687
-0.676301
-0.555824
-0.448635
-0.346184
-0.271314
-0.203695
-0.151717
-0.11122
-0.0621675
-0.0316422
-0.00518145
0.0102253
0.0164062
0.0205988
0.0113978
0.0126194
0.00234607
0.0120707
0.0121902
0.0181206
0.00998185
0.00848533
0.00510073
-0.00477603
-0.00857564
-0.0141596
-0.0251177
-0.04373
-0.039755
-0.0333215
-0.0225115
-0.0249992
-0.00833396
0.00242213
-0.00508122
0.00196084
0.00891052
0.0075629
-0.00329359
-0.00579511
-0.012357
-0.0140053
-0.0109568
-0.0159863
-0.0108472
-0.00495274
-0.0150879
-0.00976227
-0.00670565
-0.0067613
-0.00487545
-0.00573615
0.00416321
0.00178828
0.019584
0.0307528
0.0254236
0.039418
0.0442835
0.0459483
0.0482475
0.0434395
0.0380125
0.0431125
0.0402271
0.0435058
0.046499
0.050597
0.0580965
0.0606777
0.0555026
0.0517883
0.044049
0.03021
0.0199024
0.0078692
0.0103075
0.00419476
-0.000437717
-0.00683148
-0.0118403
-0.00140707
0.000610847
0.00365715
0.0110767
0.0198951
0.0274981
0.0313506
0.028495
0.0143819
0.0236533
0.0201327
0.021031
0.0258491
0.0226807
0.0353157
0.0334076
0.0337634
0.0348077
0.0327357
0.0219631
0.033132
0.0394273
0.0454008
0.0537994
0.0555365
0.054525
0.0549866
0.0658565
0.0714737
0.0729571
0.0767828
0.0809667
0.0750883
0.0668716
0.0743932
0.0765514
0.0743769
0.0675568
0.0643867
0.0524882
0.0546341
0.0393952
0.0429958
0.0405743
0.0263235
0.0250242
0.0298797
0.0330253
0.0290066
0.0316481
0.0345587
0.0321263
0.0257484
0.0311051
0.036266
0.0418405
0.0442143
0.0371046
0.0431452
0.0355124
0.0325629
0.0176533
0.00427226
0.00251531
-0.000269239
0.00065483
0.00561107
0.0155612
0.0248875
0.0296746
0.0288344
0.0305802
0.0173078
0.0158177
0.00479741
0.012602
0.010703
0.0072165
0.00810724
0.0110685
0.0114375
0.00980526
0.00979304
0.00337863
0.00361024
0.00537005
0.0150721
0.0275138
0.025183
0.0324325
0.032821
0.0348886
0.0431259
0.0511022
0.0480797
0.0455746
0.0294797
0.0302514
0.0331256
0.0367236
0.04815
0.0523552
0.0583562
0.0505777
0.0425698
0.0426563
0.0479129
0.0543191
0.0665733
0.0717398
0.0644972
0.0596307
0.0588354
0.0535205
0.0487545
0.0494029
0.0489021
0.0467956
0.0273295
0.00936979
0.0221716
0.0244242
0.0245864
0.0250105
0.025968
0.0391807
0.0517233
0.0503279
0.0547723
0.0560867
0.0546717
0.0538976
0.0536707
0.0500351
0.049539
0.0452644
0.0317338
0.0334348
0.0349541
0.0463963
0.0537376
0.050595
0.0434485
0.0443059
0.0250544
0.0259718
0.0244816
0.026872
0.0261091
0.0179368
0.0125387
0.00491366
0.00610303
0.00162932
0.00796929
-0.000516551
-0.0025445
-0.00942
-0.0152696
0.00553615
0.0261086
0.0302807
0.0254202
0.0301217
0.0335436
0.0232898
0.0291965
0.0264998
0.0256654
0.0253695
0.0251768
0.0186235
0.014345
0.00387224
0.00350855
0.00124966
0.00190462
0.00232725
0.0125377
0.0160931
0.00773446
0.0119492
0.0114553
0.00915328
0.0134128
0.0197198
0.0105663
0.0038807
0.00608673
0.0169408
0.0244193
0.0325016
0.0366937
0.0363902
0.024231
0.0258589
0.0312941
0.0298711
0.0274011
0.0217954
0.0237514
0.0219698
0.0247736
0.0245147
0.0376919
0.0418259
0.0505698
0.0527505
0.0517517
0.0505563
0.0453716
0.0527005
0.0545875
0.049205
0.052893
0.0499429
0.0474318
0.0564823
0.0516743
0.0485756
0.0511094
0.0433749
0.0319773
0.0309898
0.0290244
0.0237287
0.0288961
0.0377286
0.0383903
0.0452836
0.050299
0.0522694
0.0474064
0.0437185
0.0368898
0.0320423
0.0303696
0.0260758
0.0232296
0.0057031
-0.0107858
-0.0177416
0.00835892
0.0266836
0.0382084
0.0444652
0.0402462
0.0429586
0.0381944
0.0267647
0.0103269
-0.00289252
-0.004183
-0.00400737
0.000931405
0.0089822
0.0126162
0.0137593
0.0129573
0.0158255
0.0143431
0.0265325
0.0331006
0.0467506
0.0561765
0.0601773
0.0542198
0.0465363
0.04045
0.0331352
0.039946
0.0529567
0.0623835
0.063883
0.0660861
0.0631311
0.0491183
0.0514809
0.0408217
0.0343708
0.0224456
0.0145134
0.020974
0.0259966
0.017804
0.0153041
0.00840304
-0.00141097
-0.00761574
-0.00299638
-0.0035223
-0.00658188
-0.00153077
0.00688006
0.00985104
0.0267231
0.0307658
0.0428831
0.0470093
0.052217
0.0499949
0.0477297
0.0595936
0.0600024
0.0634725
0.05643
0.0477941
0.0397827
0.036821
0.029732
0.0326952
0.0279766
0.036384
0.0427993
0.0431065
0.0468514
0.0490141
0.040787
0.039701
0.034474
0.0305895
0.0258745
0.0235949
0.028416
0.0305616
0.0249411
0.0196887
0.0122808
0.0149776
0.00260535
-0.00451002
-0.00107877
0.00300525
0.0034409
0.00717149
0.00736434
0.0216242
0.0274756
0.0295087
0.0296556
0.0346176
0.0332118
0.0303747
0.0300431
0.026657
0.0224091
0.016927
0.00222955
0.00344752
0.00630304
0.0261419
0.0363906
0.0383407
0.0408461
0.0419868
0.0261754
0.0283594
0.0234241
0.0231769
0.0387537
0.0500288
0.0549616
0.0678098
-7.29415
-7.31387
-7.26598
-7.31254
-7.24972
-7.2938
-7.23221
-7.26481
-7.23632
-7.24559
-7.24678
-7.22464
-7.23681
-7.20684
-7.21615
-7.18138
-7.19318
-7.1554
-7.1656
-7.13835
-7.11877
-7.11989
-7.0615
-7.08885
-7.00129
-7.02384
-6.9929
-7.04842
-6.92563
-6.84811
-6.78366
-6.73542
-6.64405
-6.5884
-6.52883
-6.46432
-6.33446
-6.2374
-6.11928
-6.05483
-5.95176
-5.94583
-5.7248
-5.54852
-5.39756
-5.21504
-5.16133
-4.93178
-4.68683
-4.43852
-4.20489
-3.98511
-3.78392
-3.54519
-3.3099
-3.0569
-2.83999
-2.61114
-2.36962
-2.15877
-1.93956
-1.74045
-1.54125
-1.34128
-1.16438
-1.01092
-0.888747
-0.714387
-0.567296
-0.434268
-0.319355
-0.226456
-0.1391
-0.0739904
-0.0224846
0.0225669
0.0578896
0.0952024
0.118404
0.132816
0.131961
0.0970893
0.118529
0.0947236
0.125675
0.130826
0.140013
0.129057
0.133876
0.130843
0.120192
0.11046
0.0992931
0.0863473
0.0638093
0.0130362
0.0480986
0.0666883
0.0397185
0.0863928
0.103051
0.105302
0.119615
0.118781
0.115399
0.11446
0.113628
0.106571
0.10575
0.0927728
0.0598964
0.0676869
0.0916464
0.0949345
0.101427
0.0987953
0.092312
0.0840139
0.0967913
0.107011
0.108832
0.121939
0.126264
0.130514
0.147224
0.152323
0.156029
0.147708
0.130165
0.148282
0.157838
0.150226
0.151318
0.151085
0.158101
0.165075
0.161481
0.160929
0.166544
0.165009
0.153003
0.133162
0.107093
0.102072
0.0788246
0.0996655
0.103718
0.0920926
0.0804499
0.0532068
0.106955
0.118754
0.0847498
0.128522
0.14494
0.149894
0.142017
0.1258
0.0877749
0.115681
0.126386
0.124137
0.131814
0.121468
0.132247
0.135806
0.122696
0.109132
0.124811
0.0950818
0.133706
0.154641
0.15693
0.159618
0.157345
0.145731
0.159225
0.177501
0.187671
0.194948
0.189444
0.188835
0.189011
0.183359
0.184189
0.183505
0.183932
0.169618
0.163304
0.147494
0.155558
0.147827
0.139339
0.13809
0.120432
0.133986
0.136734
0.136842
0.139334
0.1316
0.114932
0.124458
0.094305
0.145791
0.161484
0.157575
0.157995
0.143614
0.143415
0.131564
0.129324
0.120903
0.108242
0.100052
0.0881728
0.0650672
0.101193
0.125536
0.144225
0.150715
0.141818
0.131084
0.0823359
0.113654
0.117514
0.111513
0.0941065
0.101098
0.12273
0.127576
0.11197
0.0806829
0.101089
0.101522
0.075147
0.113746
0.12207
0.135536
0.136487
0.138979
0.136597
0.153948
0.158806
0.165397
0.156354
0.142778
0.0940348
0.130294
0.139499
0.158141
0.168781
0.162989
0.16507
0.15112
0.116461
0.163717
0.184045
0.18953
0.190942
0.188453
0.166904
0.134843
0.152911
0.169646
0.173489
0.166407
0.145131
0.12922
0.0745976
0.119301
0.141864
0.147937
0.142987
0.147155
0.149129
0.149486
0.162991
0.165167
0.163597
0.163292
0.159453
0.147262
0.162414
0.161868
0.144543
0.129745
0.0888191
0.13386
0.1455
0.149203
0.154896
0.156277
0.136916
0.138634
0.133693
0.134175
0.126395
0.117747
0.108829
0.0895492
0.103512
0.104979
0.101727
0.0954429
0.0940079
0.0531569
0.0768547
0.0372732
0.108965
0.124188
0.134593
0.145058
0.141282
0.130979
0.132171
0.100419
0.119318
0.129228
0.133436
0.130928
0.134215
0.132199
0.126039
0.109719
0.0841681
0.0809591
0.10668
0.115902
0.120558
0.123908
0.118287
0.121765
0.125915
0.122854
0.117793
0.127055
0.125382
0.118447
0.117263
0.131945
0.143135
0.150123
0.145615
0.147299
0.135563
0.139028
0.140568
0.137332
0.128288
0.0968679
0.125244
0.136074
0.13951
0.137536
0.151759
0.152374
0.154546
0.14641
0.140563
0.148563
0.154139
0.160529
0.159829
0.13839
0.154472
0.164135
0.160301
0.1603
0.150695
0.154692
0.158009
0.154361
0.137532
0.11904
0.121594
0.119013
0.126827
0.140728
0.138986
0.159373
0.1729
0.175858
0.159737
0.140203
0.145366
0.147154
0.141912
0.133724
0.113304
0.0467431
0.038177
0.108843
0.148262
0.164838
0.169701
0.172242
0.164256
0.153845
0.14257
0.130974
0.117576
0.101853
0.0652266
0.106391
0.121595
0.131565
0.132045
0.133471
0.118488
0.0797
0.12415
0.152998
0.159236
0.157429
0.15978
0.173021
0.172829
0.149012
0.101344
0.142991
0.159692
0.171126
0.179295
0.180519
0.169821
0.164576
0.16343
0.160748
0.132752
0.0819331
0.120561
0.137782
0.14272
0.149118
0.1261
0.0803571
0.0927772
0.0876714
0.0646479
0.0862096
0.102744
0.103739
0.0904787
0.120703
0.136224
0.156576
0.159408
0.165555
0.163546
0.168075
0.175042
0.170511
0.176339
0.166883
0.166801
0.158133
0.14925
0.141687
0.128419
0.0866132
0.13066
0.147177
0.151429
0.155931
0.158451
0.154043
0.157907
0.148591
0.139913
0.127476
0.116229
0.103163
0.130061
0.139972
0.147301
0.139827
0.131891
0.122688
0.112145
0.0617654
0.0985316
0.0963022
0.0680382
0.107958
0.130939
0.129605
0.125544
0.123126
0.144837
0.150635
0.139425
0.100404
0.131229
0.141804
0.138875
0.12072
0.0987715
0.0589161
0.103499
0.101236
0.130329
0.156507
0.160891
0.151223
0.142521
0.104571
0.111475
0.0823692
0.129526
0.156171
0.176272
0.169664
-7.80925
-7.79087
-7.78974
-7.75336
-7.76156
-7.74402
-7.74592
-7.75034
-7.72409
-7.73826
-7.69763
-7.72185
-7.68363
-7.71415
-7.67077
-7.69184
-7.6622
-7.64576
-7.66145
-7.61169
-7.63086
-7.568
-7.55778
-7.53032
-7.51422
-7.48866
-7.44838
-7.53709
-7.3828
-7.33476
-7.24068
-7.16155
-7.09108
-6.99378
-6.95837
-6.98271
-6.78197
-6.6371
-6.5493
-6.49553
-6.33499
-6.30645
-6.12321
-5.94735
-5.79523
-5.51062
-5.32431
-5.262
-5.01057
-4.79679
-4.51807
-4.31195
-4.15507
-3.89101
-3.59006
-3.28454
-3.07998
-2.77434
-2.50969
-2.25256
-2.03331
-1.83995
-1.59645
-1.37097
-1.16236
-0.990762
-0.903085
-0.699791
-0.531752
-0.395089
-0.277876
-0.17071
-0.077111
-0.0109729
0.0289946
0.0225927
0.0924875
0.149372
0.18648
0.208793
0.203637
0.138613
0.17645
0.132146
0.153634
0.187624
0.191531
0.19089
0.191847
0.185925
0.172448
0.141631
0.127493
0.136606
0.12544
0.0601835
0.074914
0.110048
0.0598025
0.0989958
0.152673
0.164798
0.13709
0.166219
0.17541
0.16573
0.149024
0.149581
0.129879
0.128178
0.0679224
0.0703012
0.136166
0.143849
0.10122
0.139215
0.139228
0.0936913
0.140719
0.144762
0.151726
0.121388
0.17159
0.181254
0.155815
0.204235
0.211945
0.200008
0.152483
0.193262
0.199871
0.198757
0.182357
0.196898
0.211866
0.217599
0.221332
0.21012
0.213232
0.214941
0.204066
0.179323
0.117137
0.120893
0.092377
0.150656
0.142955
0.102841
0.0817546
0.0671003
0.151285
0.165044
0.128927
0.179345
0.182979
0.194337
0.180901
0.125784
0.0931977
0.14821
0.139091
0.148563
0.131474
0.162981
0.177517
0.183939
0.179172
0.131731
0.153008
0.117821
0.184674
0.199507
0.208356
0.209031
0.191717
0.134382
0.196686
0.216107
0.231425
0.235107
0.237967
0.225184
0.196656
0.224521
0.232554
0.233725
0.218554
0.202298
0.166724
0.174213
0.149656
0.173031
0.16885
0.129196
0.0997202
0.159252
0.170453
0.138824
0.173271
0.174001
0.125744
0.161473
0.126218
0.196971
0.212137
0.208764
0.185971
0.193985
0.189604
0.179655
0.161472
0.123951
0.115398
0.110463
0.125436
0.0870702
0.153453
0.17315
0.195225
0.194214
0.183216
0.157877
0.0954763
0.111694
0.150543
0.132839
0.0726869
0.0897119
0.152911
0.174351
0.167553
0.110212
0.155785
0.163682
0.122548
0.167857
0.167036
0.14542
0.169438
0.155558
0.127376
0.186369
0.213154
0.211131
0.199333
0.158618
0.120113
0.16827
0.14288
0.195914
0.209678
0.224322
0.213824
0.197896
0.155248
0.20158
0.21312
0.243272
0.249041
0.231819
0.202957
0.137576
0.189852
0.201598
0.206422
0.205021
0.200366
0.173959
0.132352
0.178452
0.184619
0.171
0.158672
0.152861
0.181939
0.20374
0.20553
0.207136
0.195042
0.184351
0.184632
0.145801
0.185853
0.192867
0.184611
0.141952
0.0958539
0.155383
0.176533
0.194238
0.19571
0.180289
0.167558
0.117993
0.131238
0.144969
0.147335
0.152193
0.137141
0.0830296
0.112945
0.120131
0.0880472
0.134397
0.130823
0.0821309
0.134238
0.0905155
0.15956
0.183661
0.180435
0.158178
0.170761
0.179456
0.159581
0.105506
0.150061
0.166458
0.160095
0.172256
0.158726
0.158402
0.120015
0.131127
0.0760313
0.0701059
0.118303
0.154552
0.158061
0.122558
0.152606
0.149046
0.136697
0.14779
0.14628
0.141732
0.112252
0.120945
0.124334
0.163483
0.186399
0.192786
0.185306
0.140294
0.124674
0.173678
0.19195
0.191798
0.177397
0.128146
0.173972
0.168291
0.133331
0.151424
0.17769
0.200003
0.196892
0.193579
0.177469
0.14144
0.183355
0.197022
0.181647
0.134448
0.17192
0.159955
0.196184
0.188258
0.149053
0.18437
0.181459
0.146784
0.152222
0.11551
0.120379
0.120843
0.167902
0.177018
0.149138
0.202163
0.219777
0.218775
0.208347
0.151698
0.192902
0.196064
0.165212
0.193757
0.173378
0.101958
0.103548
0.172331
0.199368
0.215592
0.212651
0.192611
0.206159
0.205457
0.180548
0.136273
0.109123
0.134843
0.100794
0.153676
0.163232
0.17079
0.16698
0.153017
0.15989
0.120887
0.181866
0.195429
0.208006
0.218916
0.223718
0.217201
0.211955
0.201292
0.145026
0.194821
0.208275
0.225291
0.227596
0.221398
0.212415
0.168032
0.204758
0.197709
0.174359
0.104987
0.134572
0.17282
0.20213
0.199281
0.186569
0.115809
0.152022
0.142423
0.0813513
0.13404
0.131562
0.132244
0.0881139
0.136932
0.18262
0.194485
0.205445
0.20496
0.20705
0.198005
0.178507
0.213643
0.221417
0.226478
0.211207
0.187693
0.156312
0.173117
0.146756
0.0765445
0.147678
0.18103
0.197193
0.201377
0.201092
0.20043
0.186984
0.179389
0.179102
0.166567
0.11538
0.0801664
0.151567
0.162993
0.165831
0.168814
0.134425
0.170736
0.159766
0.105769
0.149355
0.144662
0.101121
0.15436
0.150374
0.174138
0.174054
0.133335
0.184584
0.209052
0.202768
0.141357
0.187774
0.180496
0.182609
0.167863
0.0985679
0.0752853
0.128015
0.112698
0.179966
0.195784
0.201594
0.190545
0.1396
0.0926115
0.149636
0.122314
0.178482
0.210021
0.214248
0.227488
-8.36551
-8.35026
-8.35769
-8.33063
-8.34812
-8.33779
-8.35187
-8.34949
-8.33385
-8.3373
-8.31032
-8.31708
-8.29757
-8.30878
-8.28536
-8.29247
-8.27033
-8.26451
-8.26037
-8.23504
-8.23071
-8.19105
-8.17322
-8.14747
-8.13449
-8.08543
-8.01483
-7.88423
-7.94294
-7.89687
-7.87113
-7.74694
-7.68687
-7.58887
-7.47017
-7.46384
-7.32574
-7.18826
-7.0029
-6.84099
-6.68568
-6.55783
-6.52
-6.3272
-6.17179
-5.87718
-5.67803
-5.62729
-5.42704
-5.19174
-4.86948
-4.68236
-4.45663
-4.19869
-3.91007
-3.53712
-3.34395
-3.0324
-2.69066
-2.4193
-2.19718
-2.04053
-1.72618
-1.45358
-1.22541
-1.01512
-0.858098
-0.725072
-0.539763
-0.386933
-0.264897
-0.153204
-0.0692816
0.00580557
0.0226618
0.00581871
0.0689272
0.165755
0.19755
0.227198
0.24316
0.262441
0.253912
0.236807
0.176005
0.194014
0.199572
0.163395
0.191378
0.191286
0.166617
0.0965915
0.0742973
0.108616
0.131687
0.15756
0.140352
0.181428
0.193727
0.132636
0.167819
0.144877
0.112342
0.161823
0.166951
0.150229
0.11526
0.112827
0.0872243
0.150652
0.160082
0.118689
0.147883
0.118947
0.0764927
0.115281
0.117015
0.108602
0.141071
0.115588
0.142535
0.0985704
0.15398
0.144456
0.129355
0.188155
0.210515
0.201319
0.193233
0.207178
0.215118
0.193698
0.185111
0.187609
0.208938
0.21065
0.1732
0.143733
0.174115
0.205957
0.198071
0.162408
0.136886
0.123983
0.17228
0.173007
0.174324
0.130892
0.126304
0.197486
0.210949
0.22623
0.224537
0.208396
0.158257
0.203292
0.194024
0.130662
0.174631
0.164703
0.0972904
0.130076
0.06431
0.0952776
0.132186
0.172327
0.161521
0.190118
0.208433
0.211942
0.191468
0.19467
0.1677
0.171205
0.181731
0.121502
0.163793
0.192067
0.195879
0.225864
0.221923
0.214169
0.162407
0.208423
0.224535
0.220053
0.203219
0.172571
0.101801
0.113905
0.101245
0.16406
0.16303
0.103317
0.0949052
0.157654
0.161176
0.122031
0.179136
0.186909
0.158956
0.207158
0.241189
0.235614
0.223342
0.18343
0.146191
0.147286
0.172779
0.141348
0.163314
0.105172
0.111959
0.075171
0.11442
0.151124
0.142297
0.131874
0.182839
0.188226
0.153609
0.196441
0.182313
0.121007
0.157051
0.116084
0.0789485
0.103409
0.172164
0.192967
0.190335
0.19246
0.165165
0.19154
0.206071
0.19228
0.138499
0.127235
0.162046
0.118912
0.117368
0.179798
0.191303
0.221312
0.213575
0.165172
0.202646
0.200055
0.153781
0.207649
0.217853
0.195665
0.216815
0.207752
0.228173
0.241361
0.20861
0.251578
0.258926
0.250581
0.209486
0.146412
0.175429
0.189075
0.195822
0.197745
0.172678
0.1992
0.202999
0.194604
0.203082
0.186727
0.129971
0.127699
0.171188
0.153274
0.167615
0.175805
0.142484
0.132246
0.17785
0.158592
0.200572
0.194647
0.144174
0.108713
0.164004
0.173109
0.135729
0.166264
0.179996
0.157262
0.116216
0.0665573
0.0784024
0.109904
0.0951459
0.110892
0.125127
0.0942217
0.0936307
0.11055
0.0480861
0.0974129
0.147387
0.189354
0.193293
0.221366
0.192995
0.158127
0.164235
0.126457
0.156511
0.135427
0.179229
0.184273
0.132421
0.1674
0.120785
0.150654
0.117462
0.152221
0.1032
0.144393
0.102525
0.0950986
0.102859
0.136558
0.145738
0.0921384
0.121772
0.138104
0.113413
0.137473
0.0923765
0.139874
0.081181
0.0953591
0.127708
0.161373
0.164232
0.187072
0.170455
0.105452
0.11019
0.171085
0.174114
0.178038
0.194275
0.203547
0.193806
0.169253
0.0868412
0.0929061
0.169742
0.182288
0.178167
0.136051
0.10832
0.090704
0.162272
0.189442
0.185945
0.152519
0.177308
0.134333
0.181585
0.179952
0.140677
0.176355
0.17508
0.118898
0.152699
0.120302
0.103808
0.118696
0.148441
0.179385
0.168408
0.216998
0.239084
0.238009
0.216566
0.169085
0.198448
0.199208
0.17958
0.217476
0.223144
0.217646
0.208306
0.190266
0.224795
0.226951
0.220432
0.174675
0.217657
0.208832
0.181263
0.0961232
0.0864616
0.15945
0.182528
0.179016
0.141853
0.164101
0.140912
0.136006
0.186993
0.19725
0.176169
0.2006
0.202434
0.180676
0.179932
0.22123
0.228221
0.225022
0.232677
0.204834
0.177353
0.2091
0.23409
0.22543
0.202138
0.149182
0.201466
0.206927
0.178809
0.214955
0.167326
0.194459
0.227981
0.241898
0.219974
0.204899
0.148029
0.132469
0.153516
0.120564
0.109288
0.148167
0.115249
0.123068
0.177158
0.203405
0.210383
0.211776
0.193419
0.182532
0.131107
0.18954
0.208005
0.183808
0.199336
0.163222
0.150207
0.177938
0.160388
0.0962017
0.156201
0.184041
0.176885
0.178545
0.183806
0.183221
0.182435
0.141422
0.172243
0.15446
0.128966
0.0967045
0.159761
0.133164
0.174796
0.161867
0.120696
0.163918
0.195126
0.20124
0.170474
0.142402
0.185874
0.175565
0.135772
0.171584
0.158175
0.145548
0.195053
0.22104
0.229496
0.237988
0.205041
0.158215
0.182778
0.169412
0.120284
0.163738
0.172816
0.166211
0.155375
0.196263
0.191277
0.187153
0.126717
0.126691
0.192357
0.198416
0.163171
0.200013
0.210356
0.181391
-8.75531
-8.78225
-8.75563
-8.81032
-8.77611
-8.81984
-8.78535
-8.80986
-8.80121
-8.79984
-8.81724
-8.78271
-8.80973
-8.77297
-8.79725
-8.76709
-8.77375
-8.75927
-8.74441
-8.75038
-8.71124
-8.72616