/*--------------------------------*- C++ -*----------------------------------*\
| =========                 |                                                 |
| \\      /  F ield         | OpenFOAM: The Open Source CFD Toolbox           |
|  \\    /   O peration     | Version:  v2012                                 |
|   \\  /    A nd           | Website:  www.openfoam.com                      |
|    \\/     M anipulation  |                                                 |
\*---------------------------------------------------------------------------*/
FoamFile
{
    version     2.0;
    format      ascii;
    class       volVectorField;
    location    "250";
    object      U;
}
// * * * * * * * * * * * * * * * * * * * * * * * * * * * * * * * * * * * * * //

dimensions      [0 1 -1 0 0 0 0];


internalField   nonuniform List<vector> 
65536
(
(0.423278 -0.431918 0)
(1.25961 -0.423345 0)
(2.04808 -0.398367 0)
(2.81709 -0.398669 0)
(3.60327 -0.392062 0)
(4.36756 -0.403471 0)
(5.18044 -0.398687 0)
(5.94099 -0.404251 0)
(6.74325 -0.410602 0)
(7.54115 -0.414508 0)
(8.34985 -0.409932 0)
(9.17189 -0.413363 0)
(9.99739 -0.418715 0)
(10.8445 -0.413719 0)
(11.6327 -0.405375 0)
(12.4464 -0.416785 0)
(13.2448 -0.418616 0)
(14.0508 -0.414992 0)
(14.8837 -0.410567 0)
(15.7042 -0.401464 0)
(16.4992 -0.428453 0)
(17.3656 -0.444083 0)
(18.2399 -0.438637 0)
(19.1055 -0.438943 0)
(19.9639 -0.433287 0)
(20.8038 -0.407132 0)
(21.563 -0.398317 0)
(22.3718 -0.436839 0)
(23.2555 -0.428024 0)
(24.0917 -0.42297 0)
(24.9207 -0.416442 0)
(25.6874 -0.365795 0)
(26.3946 -0.336499 0)
(27.0738 -0.334884 0)
(27.687 -0.333059 0)
(28.2987 -0.30581 0)
(28.9051 -0.277797 0)
(29.4875 -0.274431 0)
(30.0233 -0.256606 0)
(30.4743 -0.23865 0)
(30.9153 -0.211478 0)
(31.2829 -0.168358 0)
(31.6053 -0.146126 0)
(31.8897 -0.134616 0)
(32.1195 -0.12781 0)
(32.312 -0.0722828 0)
(32.3481 0.0122795 0)
(32.3178 0.0422283 0)
(32.2752 0.0310146 0)
(32.2155 0.0217099 0)
(32.1116 0.0620095 0)
(31.8933 0.146985 0)
(31.5652 0.21195 0)
(31.1598 0.230653 0)
(30.6773 0.209416 0)
(30.2418 0.202336 0)
(29.7826 0.258149 0)
(29.2376 0.267352 0)
(28.7422 0.228244 0)
(28.2701 0.255901 0)
(27.6851 0.31024 0)
(27.0456 0.309542 0)
(26.4591 0.306949 0)
(25.8341 0.359293 0)
(25.097 0.368793 0)
(24.4124 0.33396 0)
(23.7426 0.343589 0)
(23.0155 0.358578 0)
(22.3134 0.342126 0)
(21.6427 0.351514 0)
(20.9182 0.359246 0)
(20.2312 0.346326 0)
(19.5584 0.337893 0)
(18.8987 0.323606 0)
(18.2677 0.315967 0)
(17.6373 0.300253 0)
(17.0558 0.300968 0)
(16.4318 0.309198 0)
(15.8372 0.288204 0)
(15.2828 0.279978 0)
(14.7236 0.275481 0)
(14.1941 0.25456 0)
(13.7044 0.247109 0)
(13.2061 0.242676 0)
(12.7453 0.226475 0)
(12.3064 0.206895 0)
(11.9146 0.19055 0)
(11.5322 0.187648 0)
(11.1616 0.191543 0)
(10.774 0.184828 0)
(10.4276 0.170542 0)
(10.0913 0.156491 0)
(9.79824 0.138826 0)
(9.51909 0.134661 0)
(9.2444 0.142246 0)
(8.95292 0.149348 0)
(8.66429 0.138123 0)
(8.41048 0.117602 0)
(8.1742 0.119759 0)
(7.92488 0.125025 0)
(7.67503 0.120449 0)
(7.4394 0.124376 0)
(7.18997 0.125211 0)
(6.95524 0.117224 0)
(6.72886 0.111531 0)
(6.51576 0.0994622 0)
(6.32752 0.0884747 0)
(6.14707 0.0945233 0)
(5.95303 0.0963252 0)
(5.77516 0.0930582 0)
(5.59803 0.0867977 0)
(5.43755 0.0813904 0)
(5.275 0.0760095 0)
(5.13332 0.0599041 0)
(5.01017 0.0583747 0)
(4.86916 0.0756038 0)
(4.71725 0.0839607 0)
(4.56843 0.067702 0)
(4.44243 0.0575801 0)
(4.31072 0.069443 0)
(4.17423 0.0648077 0)
(4.06468 0.0505411 0)
(3.96238 0.0416978 0)
(3.87016 0.0465953 0)
(3.76524 0.0596322 0)
(3.66166 0.0566979 0)
(3.5656 0.0432378 0)
(3.47906 0.0386086 0)
(3.39668 0.0337458 0)
(3.32401 0.0361316 0)
(3.23846 0.0575967 0)
(3.12256 0.0589021 0)
(3.03315 0.0426807 0)
(2.94768 0.0422382 0)
(2.85989 0.0436994 0)
(2.77077 0.0506104 0)
(2.67051 0.0553806 0)
(2.5646 0.0453449 0)
(2.48303 0.0420508 0)
(2.40226 0.0367389 0)
(2.346 0.0278476 0)
(2.28527 0.0277857 0)
(2.22507 0.0290416 0)
(2.16563 0.0374258 0)
(2.08727 0.0352113 0)
(2.04076 0.0262056 0)
(1.98738 0.0215973 0)
(1.94792 0.0130511 0)
(1.91765 0.0119788 0)
(1.88822 0.0134019 0)
(1.84428 0.016245 0)
(1.79837 0.0240105 0)
(1.74596 0.030822 0)
(1.69585 0.0332449 0)
(1.64648 0.0206674 0)
(1.61446 0.00957894 0)
(1.59609 0.0119881 0)
(1.5564 0.0152022 0)
(1.52222 0.0112888 0)
(1.50279 0.0045998 0)
(1.48908 0.012813 0)
(1.45039 0.0200856 0)
(1.40254 0.0172418 0)
(1.36551 0.0252915 0)
(1.29861 0.0363412 0)
(1.24499 0.0365901 0)
(1.17322 0.0284092 0)
(1.13481 0.0192878 0)
(1.11223 0.00908319 0)
(1.09029 0.00380513 0)
(1.082 0.0167917 0)
(1.03108 0.021586 0)
(1.00051 0.0198188 0)
(0.952955 0.0242092 0)
(0.915554 0.0191548 0)
(0.895202 0.0136495 0)
(0.872569 0.00676998 0)
(0.856657 -0.00322616 0)
(0.843301 -0.00242233 0)
(0.842614 0.00964284 0)
(0.831842 0.011496 0)
(0.820135 0.000302034 0)
(0.815723 -0.00160046 0)
(0.795883 0.00567868 0)
(0.782205 0.000689254 0)
(0.789305 -0.00151267 0)
(0.779009 0.011215 0)
(0.757419 0.0216171 0)
(0.725335 0.0270141 0)
(0.680385 0.0255022 0)
(0.651083 0.0172691 0)
(0.608546 0.0119233 0)
(0.592459 0.0106122 0)
(0.558171 0.00614199 0)
(0.54643 -0.000997472 0)
(0.549989 -0.00559056 0)
(0.561185 -0.00760493 0)
(0.554803 0.00492946 0)
(0.537584 0.0200807 0)
(0.514912 0.0207107 0)
(0.483054 0.0115 0)
(0.471873 0.00267517 0)
(0.463965 -0.00152578 0)
(0.45967 -0.00865184 0)
(0.467043 -5.28677e-05 0)
(0.450768 0.021555 0)
(0.41915 0.0209964 0)
(0.396656 0.00719638 0)
(0.385284 -0.00281628 0)
(0.379516 -0.000311163 0)
(0.3679 0.00167077 0)
(0.372739 0.000924323 0)
(0.373019 0.0064195 0)
(0.372371 0.0125746 0)
(0.356746 0.010908 0)
(0.352627 -0.000370849 0)
(0.354107 -0.00424744 0)
(0.340091 -0.00140852 0)
(0.324378 0.0149045 0)
(0.280883 0.0192063 0)
(0.264052 0.00373378 0)
(0.271366 -0.000362008 0)
(0.25984 -0.00178957 0)
(0.263532 -0.00357275 0)
(0.260706 -0.00590931 0)
(0.261972 -0.00220167 0)
(0.270126 0.00726369 0)
(0.273941 0.000312523 0)
(0.286302 -0.00320823 0)
(0.274232 0.000742579 0)
(0.264238 -0.000343078 0)
(0.264802 -0.00645939 0)
(0.269951 0.0048251 0)
(0.244256 0.023019 0)
(0.220955 0.0158364 0)
(0.204599 0.00602541 0)
(0.186664 0.00710102 0)
(0.168737 -0.00244079 0)
(0.183351 -0.012214 0)
(0.193434 -0.00951403 0)
(0.196715 -0.00727095 0)
(0.219048 0.0032971 0)
(0.194841 0.00694448 0)
(0.175881 0.0020803 0)
(0.163206 0.00566657 0)
(0.152449 0.01354 0)
(0.149372 0.0131072 0)
(0.149859 0.000441122 0)
(0.142305 -0.00638322 0)
(0.141335 -0.00137796 0)
(0.132788 0.0144156 0)
(0.108187 0.0163996 0)
(0.103181 0.00365046 0)
(0.0879456 -0.00718726 0)
(0.0940387 -0.0124287 0)
(0.119819 0.00262376 0)
(0.105918 0.00715817 0)
(0.110182 -0.00491344 0)
(0.125348 -0.00467082 0)
(0.117794 -0.0105848 0)
(0.139412 -0.0118047 0)
(0.159735 0.00689141 0)
(0.134188 0.00718116 0)
(0.126979 0.00198569 0)
(0.0953565 0.0123776 0)
(0.0739502 0.0149096 0)
(0.0520055 0.00794639 0)
(0.033712 0.000171124 0)
(0.0366539 0.00187336 0)
(0.0372207 0.00744227 0)
(0.0349242 -0.00205322 0)
(0.0401506 -0.0136458 0)
(0.0528542 -0.000898039 0)
(0.0411245 0.00973637 0)
(0.0315236 0.00410654 0)
(0.0163613 0.00470444 0)
(0.017336 -0.000164531 0)
(0.0179906 -0.00957022 0)
(0.0273221 -0.00920258 0)
(0.0337565 -0.0023769 0)
(0.0566585 0.000153934 0)
(0.0586241 -0.000268298 0)
(0.0534966 0.00911694 0)
(0.0242409 0.0163174 0)
(0.00917488 0.00151653 0)
(0.0140046 -0.0119944 0)
(0.0213009 -0.0123719 0)
(0.0346749 -6.60235e-05 0)
(0.0486007 0.00430327 0)
(0.0608972 -0.000354538 0)
(0.0500092 0.00495403 0)
(0.0481084 0.00766815 0)
(0.0351927 0.00142347 0)
(0.0246746 0.00326202 0)
(-0.00352768 0.0144842 0)
(-0.0238708 0.0124587 0)
(-0.0429931 0.00417612 0)
(-0.0507457 0.00419737 0)
(-0.0629084 -0.00419403 0)
(-0.0483175 -0.0067856 0)
(-0.0556987 0.00397842 0)
(-0.0595183 0.00531297 0)
(-0.07181 -0.000167275 0)
(-0.0666529 -0.00253501 0)
(-0.0490436 -0.0123088 0)
(-0.0106877 -0.0187249 0)
(0.00593057 -0.00207747 0)
(-0.00791439 0.00847671 0)
(-0.0221481 0.00512986 0)
(-0.0325512 0.00554914 0)
(-0.0441843 0.000248946 0)
(-0.0377393 -0.0132676 0)
(-0.00625436 -0.00559531 0)
(-0.0299091 0.00565952 0)
(-0.0201422 0.00578883 0)
(-0.0295924 -0.00114896 0)
(-0.0254297 -0.00145115 0)
(-0.0412333 0.00248596 0)
(-0.0297716 0.00337872 0)
(-0.0155954 0.0100874 0)
(-0.0332263 0.00665128 0)
(-0.0411333 -0.000321857 0)
(-0.0547221 0.000527259 0)
(-0.0676569 0.00450971 0)
(-0.0587021 -0.00315682 0)
(-0.0519852 -0.00854333 0)
(-0.0488409 -0.0138646 0)
(-0.0205051 -0.0172989 0)
(-0.00389728 -0.0167408 0)
(0.0381432 -0.0142492 0)
(0.0732208 0.000321657 0)
(0.0694556 0.00657354 0)
(0.0667744 -0.00130702 0)
(0.0619448 0.00289675 0)
(0.0386107 0.0127209 0)
(0.00943087 0.0126424 0)
(-0.0254393 0.0177914 0)
(-0.0501474 0.0182539 0)
(-0.0728952 0.0104363 0)
(-0.0926053 0.00687665 0)
(-0.0898034 -0.000953881 0)
(-0.0898361 -0.0122102 0)
(-0.0755479 -0.0121457 0)
(-0.0679966 -0.00806465 0)
(-0.0496858 -0.00154137 0)
(-0.0287753 0.00221806 0)
(-0.0136864 -0.00529353 0)
(-0.0145215 -0.0115206 0)
(0.00211368 -0.0115133 0)
(0.0184352 -0.0104408 0)
(0.0269239 -0.00668569 0)
(0.0279332 0.00669853 0)
(0.00867882 0.0132524 0)
(-0.0104259 0.00735354 0)
(-0.0302919 0.00400637 0)
(-0.0341877 -0.000230698 0)
(-0.044398 -0.00885872 0)
(-0.0275337 -0.010012 0)
(-0.00694917 -0.00138627 0)
(0.00332275 0.000377724 0)
(0.0192263 -0.00186584 0)
(0.0233971 -0.00120125 0)
(0.0162234 0.00214848 0)
(0.014278 0.00224633 0)
(0.00715231 0.000458996 0)
(0.00015116 0.00726562 0)
(-0.0115866 0.00780837 0)
(-0.0187768 0.00101337 0)
(-0.0289911 -0.00323722 0)
(-0.0304486 -0.00453331 0)
(-0.0295793 0.00062985 0)
(-0.033043 0.0043372 0)
(-0.0158775 0.00600129 0)
(-0.0292243 0.00145405 0)
(-0.0262653 -0.00212038 0)
(-0.0267015 0.000707844 0)
(-0.029122 0.00157479 0)
(-0.0363552 -0.002901 0)
(-0.0329465 -0.00739856 0)
(-0.0189811 0.00341441 0)
(-0.0410641 0.016446 0)
(-0.0567417 0.00945137 0)
(-0.0479634 0.00403269 0)
(-0.0578759 0.00144262 0)
(-0.0552757 -0.0100104 0)
(-0.0446937 -0.0117721 0)
(-0.0396 -0.00486025 0)
(-0.0303394 0.00859742 0)
(-0.0521647 0.00699876 0)
(-0.0482632 -0.0064529 0)
(-0.0440732 -0.00398529 0)
(-0.0499772 0.00512733 0)
(-0.0361101 0.00649422 0)
(-0.0482405 0.000882264 0)
(-0.0490816 -0.00169789 0)
(-0.0466197 -0.0016049 0)
(-0.0554017 -0.00128503 0)
(-0.0538375 0.00450653 0)
(-0.0644383 0.00576383 0)
(-0.0588288 0.00265071 0)
(-0.0770289 0.00180499 0)
(-0.0842399 0.00487629 0)
(-0.100046 -0.00164804 0)
(-0.0733939 -0.0181981 0)
(-0.0412957 -0.013922 0)
(-0.045329 0.000502856 0)
(-0.0515238 0.000624266 0)
(-0.0414792 -0.00464275 0)
(-0.0188818 -0.00493533 0)
(0.00457946 -0.00321258 0)
(0.0191508 0.00153463 0)
(0.0125989 0.00318993 0)
(0.00121911 0.00267477 0)
(-0.0179915 0.00556062 0)
(-0.0392041 0.0167803 0)
(-0.073949 0.0126945 0)
(-0.0616682 -0.00645202 0)
(-0.0420631 -0.0159514 0)
(-0.0196598 -0.0128092 0)
(-0.00358125 -0.000841479 0)
(-0.00830484 0.00497969 0)
(-0.00289131 -0.00334851 0)
(0.00361355 -0.00829164 0)
(0.013687 -0.000205479 0)
(0.00103435 0.0051582 0)
(-0.016358 0.0090233 0)
(-0.0411552 0.0190324 0)
(-0.0722679 0.0250279 0)
(-0.0991385 0.0182543 0)
(-0.120237 0.00905453 0)
(-0.139179 0.0100575 0)
(-0.146253 0.0027695 0)
(-0.140095 -0.0110105 0)
(-0.113965 -0.00809533 0)
(-0.128233 -0.00599671 0)
(-0.091566 -0.0152108 0)
(-0.0707629 -0.0112836 0)
(-0.0581381 -0.00266176 0)
(-0.0392793 0.00098576 0)
(-0.037732 -0.00526883 0)
(-0.0150248 -0.00506575 0)
(-0.0245387 -0.00975178 0)
(0.00600205 -0.0136957 0)
(0.0139622 -0.0045734 0)
(0.0199328 -0.000926792 0)
(0.0254658 -0.00608388 0)
(0.0416835 -0.00752717 0)
(0.0436416 -0.000207305 0)
(0.0520018 0.00639901 0)
(0.0368273 0.00175594 0)
(0.0425577 -0.00814687 0)
(0.0483637 -0.00825876 0)
(0.0515285 -0.00436749 0)
(0.0584417 0.0110241 0)
(0.0330484 0.0145853 0)
(0.0290005 0.00831695 0)
(0.0117021 0.0157354 0)
(-0.00902388 0.017149 0)
(-0.0337312 0.00162518 0)
(-0.0305077 -0.00775793 0)
(-0.0215456 -0.00342104 0)
(-0.0230408 0.00202282 0)
(-0.0368473 0.0100737 0)
(-0.0385746 0.00517328 0)
(-0.0354239 0.000658612 0)
(-0.0491925 0.00291832 0)
(-0.038852 -0.00678884 0)
(-0.0261674 -0.00961591 0)
(-0.0179735 -0.00998444 0)
(0.00267981 -0.0142121 0)
(0.0219464 -0.00330641 0)
(0.0276239 0.00931822 0)
(0.00510658 0.00612233 0)
(-0.00633244 0.0109605 0)
(-0.0192895 0.0119339 0)
(-0.0354664 0.00414036 0)
(-0.0495731 0.00289471 0)
(-0.0597115 -0.00112875 0)
(-0.0701614 -0.00236104 0)
(-0.0702031 -0.00222738 0)
(-0.0616239 0.00412299 0)
(-0.0700014 0.00774529 0)
(-0.0439125 -0.000225529 0)
(-0.0291016 -0.00525135 0)
(-0.0219349 -0.00987118 0)
(-0.0130779 -0.00598497 0)
(-0.0287718 0.00103688 0)
(-0.0355698 -0.00390145 0)
(-0.0229931 -0.0086641 0)
(-0.0143852 0.00163121 0)
(-0.0294074 -0.000209368 0)
(-0.00414137 -0.00841997 0)
(0.026095 0.00229711 0)
(0.0231611 0.00977101 0)
(0.0126343 0.0076962 0)
(0.00354987 0.00532447 0)
(-0.00716098 -0.00181305 0)
(0.00285169 -0.0105175 0)
(0.00527134 -0.00807274 0)
(0.00126379 -0.00290152 0)
(0.00519395 0.000430094 0)
(0.00494719 0.00749467 0)
(0.013819 0.0151596 0)
(-0.00993656 0.0105924 0)
(-0.0126137 0.00119946 0)
(-0.0205121 0.0020306 0)
(-0.0362389 0.00160917 0)
(-0.0246507 -0.00569117 0)
(-0.018141 -0.00897438 0)
(-0.0112159 -0.0035684 0)
(-0.0179367 0.00156537 0)
(-0.0120548 -0.000865936 0)
(0.386759 -1.26011 0)
(1.16553 -1.22089 0)
(1.92463 -1.18066 0)
(2.66853 -1.17612 0)
(3.44076 -1.17924 0)
(4.20183 -1.19773 0)
(5.01924 -1.1924 0)
(5.80462 -1.18698 0)
(6.61429 -1.20461 0)
(7.39204 -1.21988 0)
(8.1895 -1.23814 0)
(9.00272 -1.26107 0)
(9.81042 -1.2722 0)
(10.6687 -1.25028 0)
(11.4926 -1.21166 0)
(12.3321 -1.22166 0)
(13.1194 -1.20409 0)
(13.8884 -1.23993 0)
(14.7424 -1.27011 0)
(15.6296 -1.22659 0)
(16.4652 -1.258 0)
(17.3295 -1.31146 0)
(18.1463 -1.32101 0)
(18.9714 -1.30336 0)
(19.8092 -1.28155 0)
(20.6643 -1.2107 0)
(21.4932 -1.18783 0)
(22.2556 -1.2732 0)
(23.0711 -1.30669 0)
(23.955 -1.2645 0)
(24.7489 -1.18892 0)
(25.5136 -1.1153 0)
(26.3189 -1.06266 0)
(27.0066 -0.959949 0)
(27.5594 -0.903297 0)
(28.112 -0.923842 0)
(28.7396 -0.916833 0)
(29.348 -0.852156 0)
(29.8552 -0.738626 0)
(30.308 -0.661698 0)
(30.7224 -0.605191 0)
(31.1257 -0.533063 0)
(31.4808 -0.468192 0)
(31.7428 -0.380503 0)
(31.9196 -0.295885 0)
(32.0506 -0.161406 0)
(32.123 -0.022928 0)
(32.1647 0.0222738 0)
(32.1594 0.0603067 0)
(32.0618 0.133193 0)
(31.8594 0.256054 0)
(31.6077 0.392512 0)
(31.3506 0.520414 0)
(31.0089 0.662677 0)
(30.5337 0.714359 0)
(30.0432 0.687601 0)
(29.5821 0.750604 0)
(29.1075 0.778107 0)
(28.5854 0.741158 0)
(28.0423 0.806097 0)
(27.4672 0.918236 0)
(26.8748 0.920302 0)
(26.2596 0.908553 0)
(25.6452 1.00927 0)
(24.9935 1.05888 0)
(24.307 1.02767 0)
(23.5888 1.0604 0)
(22.8657 1.07822 0)
(22.1702 1.03667 0)
(21.4816 1.04849 0)
(20.7918 1.05506 0)
(20.1285 1.01591 0)
(19.4863 0.995568 0)
(18.8376 0.967214 0)
(18.2079 0.944884 0)
(17.5855 0.911842 0)
(16.9808 0.904751 0)
(16.385 0.910582 0)
(15.808 0.861846 0)
(15.2448 0.835606 0)
(14.7096 0.815393 0)
(14.184 0.767123 0)
(13.684 0.743327 0)
(13.1985 0.719015 0)
(12.7523 0.67539 0)
(12.3162 0.625438 0)
(11.9112 0.585375 0)
(11.5159 0.566543 0)
(11.1483 0.567226 0)
(10.7749 0.549476 0)
(10.4282 0.512221 0)
(10.092 0.472227 0)
(9.79286 0.432667 0)
(9.48604 0.418508 0)
(9.2064 0.42333 0)
(8.92151 0.429747 0)
(8.66796 0.403737 0)
(8.40244 0.372433 0)
(8.14154 0.366266 0)
(7.90059 0.374569 0)
(7.64457 0.36633 0)
(7.40803 0.362695 0)
(7.17846 0.361396 0)
(6.9533 0.346806 0)
(6.72754 0.331336 0)
(6.5177 0.305954 0)
(6.30598 0.283014 0)
(6.1175 0.282831 0)
(5.93332 0.277892 0)
(5.77154 0.264008 0)
(5.6107 0.252446 0)
(5.44981 0.242594 0)
(5.29259 0.228676 0)
(5.14204 0.204795 0)
(4.9773 0.205013 0)
(4.82493 0.216509 0)
(4.70608 0.216226 0)
(4.58373 0.206967 0)
(4.41979 0.199617 0)
(4.27926 0.198664 0)
(4.1665 0.180813 0)
(4.0562 0.161283 0)
(3.94017 0.152025 0)
(3.81785 0.14992 0)
(3.72659 0.147274 0)
(3.66718 0.141867 0)
(3.57373 0.13804 0)
(3.4659 0.129997 0)
(3.37736 0.121006 0)
(3.27516 0.122524 0)
(3.19487 0.143918 0)
(3.12372 0.147989 0)
(3.03823 0.133545 0)
(2.94638 0.133038 0)
(2.85915 0.134538 0)
(2.76424 0.140723 0)
(2.68976 0.15241 0)
(2.5853 0.144339 0)
(2.4914 0.121802 0)
(2.42682 0.102181 0)
(2.36259 0.090077 0)
(2.29424 0.0942179 0)
(2.22333 0.0913861 0)
(2.16361 0.101151 0)
(2.10833 0.0903494 0)
(2.06741 0.0741074 0)
(2.01487 0.0712784 0)
(1.96273 0.0565778 0)
(1.91584 0.047153 0)
(1.88513 0.0594636 0)
(1.81516 0.0727122 0)
(1.7607 0.0732646 0)
(1.71585 0.0701672 0)
(1.69534 0.0649604 0)
(1.67066 0.0589815 0)
(1.62287 0.0390327 0)
(1.6069 0.0442992 0)
(1.54718 0.056668 0)
(1.51062 0.0408826 0)
(1.48175 0.0269505 0)
(1.45761 0.03865 0)
(1.42284 0.0648969 0)
(1.3591 0.0671168 0)
(1.31516 0.0777067 0)
(1.25284 0.0838364 0)
(1.23516 0.0880219 0)
(1.16733 0.0813137 0)
(1.13647 0.0410644 0)
(1.13033 0.0344912 0)
(1.08086 0.0255518 0)
(1.07339 0.041202 0)
(1.03371 0.0589056 0)
(1.00648 0.0569094 0)
(0.962376 0.0595604 0)
(0.943726 0.0368314 0)
(0.941945 0.0278617 0)
(0.921911 0.0303675 0)
(0.886874 0.0316754 0)
(0.832503 0.0154255 0)
(0.830673 0.00150079 0)
(0.842732 0.0109552 0)
(0.831603 0.0162934 0)
(0.802155 0.0261566 0)
(0.765825 0.0291373 0)
(0.750748 0.00674498 0)
(0.738922 0.00600758 0)
(0.724617 0.0216608 0)
(0.733397 0.0334457 0)
(0.724938 0.050839 0)
(0.705045 0.0499087 0)
(0.692105 0.0546257 0)
(0.633045 0.0466747 0)
(0.617955 0.0392353 0)
(0.568666 0.0389796 0)
(0.53654 0.00781832 0)
(0.541984 -0.010626 0)
(0.54073 0.00206287 0)
(0.509041 0.0177911 0)
(0.516636 0.0193967 0)
(0.52964 0.0337698 0)
(0.504441 0.0316882 0)
(0.48803 0.0161702 0)
(0.472034 0.0138342 0)
(0.450347 0.00566319 0)
(0.425642 0.0093962 0)
(0.43034 0.0266921 0)
(0.438309 0.033671 0)
(0.425917 0.0275977 0)
(0.399332 0.0210174 0)
(0.363791 0.0186768 0)
(0.354148 0.00591115 0)
(0.363165 -0.0056352 0)
(0.36565 -0.00543938 0)
(0.384787 0.00396649 0)
(0.389162 0.00865066 0)
(0.399302 0.00254768 0)
(0.392251 0.0164622 0)
(0.350001 0.0305246 0)
(0.311114 0.0439969 0)
(0.288848 0.0401599 0)
(0.277032 0.00533269 0)
(0.281886 0.00375613 0)
(0.265076 0.00870348 0)
(0.258545 0.00166155 0)
(0.24708 0.00637933 0)
(0.223099 -0.00859826 0)
(0.259372 -0.0203974 0)
(0.295491 -0.0180921 0)
(0.308168 0.00158432 0)
(0.285694 0.0197447 0)
(0.262084 0.00833604 0)
(0.248149 -0.000415964 0)
(0.234201 0.0144601 0)
(0.235767 0.0244657 0)
(0.25459 0.0223549 0)
(0.237093 0.0266354 0)
(0.203453 0.0275349 0)
(0.184973 0.00396293 0)
(0.180095 -0.0143454 0)
(0.170525 -0.00602137 0)
(0.15746 -0.0206119 0)
(0.193598 -0.00339711 0)
(0.169663 0.0341539 0)
(0.125309 0.0271795 0)
(0.104221 0.0156664 0)
(0.104621 -0.0021752 0)
(0.158994 -0.0128964 0)
(0.181892 0.00447717 0)
(0.152182 0.0129529 0)
(0.125767 0.00964878 0)
(0.120692 0.0179757 0)
(0.135104 0.0128231 0)
(0.144183 0.0163075 0)
(0.110616 0.0156043 0)
(0.0850478 -0.0200965 0)
(0.111952 -0.0146418 0)
(0.119591 0.00231867 0)
(0.128717 -0.0148438 0)
(0.140763 -0.00270508 0)
(0.116624 -0.00358311 0)
(0.116397 -0.0299944 0)
(0.153835 -0.00158823 0)
(0.147954 0.0255155 0)
(0.120072 0.0362399 0)
(0.0718337 0.0400201 0)
(0.0672413 0.0279065 0)
(0.0534396 0.0314225 0)
(0.0176453 0.0145755 0)
(0.0207855 -0.00731586 0)
(0.0391785 -0.00634669 0)
(0.0506979 -0.00180942 0)
(0.0316465 -0.00427244 0)
(0.0236641 1.68578e-05 0)
(0.0435216 0.0117658 0)
(0.0394513 0.0206728 0)
(0.0123794 0.00973368 0)
(0.0274274 -0.00200328 0)
(0.0149415 -0.000766292 0)
(-0.00302728 -0.00703933 0)
(0.0012197 -0.0276873 0)
(0.0510084 -0.025358 0)
(0.0584136 0.00289199 0)
(0.0415535 0.0247308 0)
(0.0335149 0.0271413 0)
(0.0320238 0.00784723 0)
(0.0166691 -0.00152891 0)
(-0.00490151 -0.00931754 0)
(0.00384591 -0.0281946 0)
(0.0596009 -0.0307774 0)
(0.0827804 -0.00122459 0)
(0.0615643 0.00741254 0)
(0.0815703 0.00735704 0)
(0.0702963 0.0216873 0)
(0.0327276 0.0352595 0)
(0.00135914 0.0332947 0)
(0.00379421 0.0267544 0)
(-0.0216089 0.0218022 0)
(-0.0319509 0.0150307 0)
(-0.0424541 0.000434255 0)
(-0.0457841 -0.0022783 0)
(-0.0574183 0.00526889 0)
(-0.0455753 0.00892782 0)
(-0.0675599 0.00568603 0)
(-0.0560209 -0.0218491 0)
(-0.0268517 -0.0447722 0)
(0.000837239 -0.0373861 0)
(0.00388667 -0.0014555 0)
(0.00265586 0.0182463 0)
(-0.0080208 0.0195805 0)
(-0.0236724 0.0163549 0)
(-0.0359106 0.00579308 0)
(-0.043006 -0.0243768 0)
(-0.0200661 -0.00117453 0)
(-0.0593724 0.00870332 0)
(-0.0269161 -0.00502463 0)
(-0.0287345 0.00764065 0)
(-0.0458167 0.0148888 0)
(-0.0671597 0.00282205 0)
(-0.042238 -0.0275355 0)
(0.00911371 -0.00582797 0)
(0.00323932 0.0193253 0)
(-0.00932322 0.0224076 0)
(-0.0468099 0.0261107 0)
(-0.0675654 -0.000170365 0)
(-0.0347501 -0.0128335 0)
(-0.0501282 -0.00103952 0)
(-0.0605457 -0.0182431 0)
(-0.0484635 -0.0280857 0)
(-0.0460123 -0.0424968 0)
(-0.00657875 -0.0629759 0)
(0.0481586 -0.0321065 0)
(0.0713361 0.000713972 0)
(0.0692215 0.0095302 0)
(0.0470326 0.0267718 0)
(0.0222441 0.0410774 0)
(-0.00459515 0.0529986 0)
(-0.0529451 0.0424401 0)
(-0.0397052 0.0297786 0)
(-0.052899 0.0325765 0)
(-0.0746509 0.0105182 0)
(-0.0482874 -0.00220372 0)
(-0.0645602 -0.00242809 0)
(-0.0798808 -0.0108236 0)
(-0.082017 -0.0190215 0)
(-0.0599428 -0.0390062 0)
(-0.00335339 -0.0395081 0)
(0.0352233 -0.0104038 0)
(0.00709184 -0.00576252 0)
(0.00758934 -0.0227297 0)
(0.0156395 -0.0157243 0)
(0.00870031 -0.00427556 0)
(0.00544717 0.0103667 0)
(0.0070142 0.0241487 0)
(-0.0111201 0.0308961 0)
(-0.0429913 0.0192876 0)
(-0.0456813 0.0135987 0)
(-0.0815103 0.00192295 0)
(-0.0817104 -0.0289116 0)
(-0.040961 -0.0307515 0)
(-0.0105417 -0.0282011 0)
(0.0189113 -0.0195312 0)
(0.027403 0.00199711 0)
(0.012603 0.00543405 0)
(0.0221926 0.00475577 0)
(0.00377824 0.0124382 0)
(-0.00479945 0.0101753 0)
(0.00147667 0.0102499 0)
(-0.00624733 0.0153588 0)
(-0.0296756 0.0142734 0)
(-0.0510688 0.00485009 0)
(-0.0556552 0.00181524 0)
(-0.0485981 -0.0181745 0)
(0.00338735 -0.00921169 0)
(-0.00353156 0.00970732 0)
(-0.0104964 0.000946917 0)
(-0.0106666 0.00316986 0)
(-0.0178865 0.00932078 0)
(-0.0338912 0.00768786 0)
(-0.043576 -0.0086248 0)
(-0.0316235 0.00621065 0)
(-0.0446725 0.0229886 0)
(-0.0342076 -0.000802745 0)
(-0.0156174 -0.00144087 0)
(-0.0145574 0.00767089 0)
(-0.0249854 -0.00214905 0)
(-0.0488324 -0.00221045 0)
(-0.0620321 -0.00828608 0)
(-0.0364589 0.0054831 0)
(-0.0435443 0.0113677 0)
(-0.0462247 -0.00109763 0)
(-0.0607792 0.00569876 0)
(-0.0665861 -0.0126209 0)
(-0.0187186 -0.00828818 0)
(-0.0336504 0.0124539 0)
(-0.0403124 0.000780691 0)
(-0.0325961 0.0085087 0)
(-0.0564441 0.00970112 0)
(-0.056892 0.00561905 0)
(-0.0487907 2.90815e-05 0)
(-0.0277814 0.0107745 0)
(-0.0591923 0.0241792 0)
(-0.0818713 0.0194284 0)
(-0.0975911 -0.00851699 0)
(-0.0693826 -0.038867 0)
(-0.0585931 -0.0129951 0)
(-0.079503 0.0119932 0)
(-0.0876877 -0.00272602 0)
(-0.0679918 -0.0261518 0)
(-0.0380432 -0.0393433 0)
(6.32377e-05 -0.0335761 0)
(0.034392 -0.00806964 0)
(0.0332513 0.0158034 0)
(0.0133965 0.0297204 0)
(-0.0289664 0.0366279 0)
(-0.0593043 0.0413937 0)
(-0.0733525 0.0116048 0)
(-0.0434232 -0.023413 0)
(-0.0358089 -0.0243184 0)
(-0.0320932 -0.0237575 0)
(-0.0165556 -0.00875096 0)
(-0.0116088 -0.00374382 0)
(-0.00071123 -0.00615294 0)
(-0.0151637 -0.00649869 0)
(-0.00641618 0.00508673 0)
(-0.0246241 0.0267744 0)
(-0.0539462 0.034151 0)
(-0.0720238 0.0382827 0)
(-0.0765467 0.0344265 0)
(-0.0628582 0.0313849 0)
(-0.0886191 0.0324559 0)
(-0.104117 0.0173904 0)
(-0.0991536 -0.000223936 0)
(-0.0953039 -0.0201164 0)
(-0.0834215 -0.00244518 0)
(-0.116934 -0.0148315 0)
(-0.0757264 -0.0404993 0)
(-0.069213 -0.0206907 0)
(-0.065268 -0.0271933 0)
(-0.0184733 -0.0193705 0)
(-0.0142816 -0.0167206 0)
(0.00375373 -0.00664796 0)
(-0.0125499 -0.00915328 0)
(-0.00318365 -0.0231423 0)
(-0.00321186 -0.00759626 0)
(0.00247102 -0.00891915 0)
(0.0102942 -0.0136356 0)
(0.0163166 -0.00904774 0)
(0.00900291 -0.00795634 0)
(0.0355065 0.00188645 0)
(0.0272179 0.00925643 0)
(0.0212294 -0.00240179 0)
(0.00549131 0.000539097 0)
(-0.00264597 -0.00504984 0)
(0.01313 0.00830831 0)
(0.014497 0.0154232 0)
(0.0212113 0.0136402 0)
(0.0101347 0.0226461 0)
(0.0189394 0.0289442 0)
(-0.00169169 0.0203461 0)
(-0.0227692 -0.00369838 0)
(-0.0133863 -0.00324403 0)
(-0.0268281 0.0145716 0)
(-0.0458526 0.00711688 0)
(-0.0110775 -0.00451513 0)
(-0.0130972 0.0127696 0)
(-0.0312766 0.00358507 0)
(-0.0110612 -0.0134742 0)
(-0.0220739 -0.0081381 0)
(-0.0224145 -0.0172937 0)
(-0.00798928 -0.0237023 0)
(-0.00110133 -0.019986 0)
(0.0283615 0.0089341 0)
(-0.000496835 0.029108 0)
(-0.0176498 0.0146511 0)
(0.0023871 0.0184316 0)
(-0.0176301 0.026648 0)
(-0.0386485 0.0219436 0)
(-0.059292 0.0215313 0)
(-0.0981982 0.0126684 0)
(-0.0938768 -0.00717323 0)
(-0.0834684 -0.00438163 0)
(-0.0754153 -0.025192 0)
(-0.00212723 -0.0405023 0)
(0.0306549 -0.0157331 0)
(0.0236031 -0.00498432 0)
(0.00618049 0.0148957 0)
(-0.032633 0.024208 0)
(-0.0470896 0.00150504 0)
(-0.0543283 -0.0090224 0)
(-0.0543669 0.00847646 0)
(-0.0639209 -0.00594931 0)
(-0.0383862 -0.0435359 0)
(0.0113324 -0.0257333 0)
(0.0320041 0.00677037 0)
(0.0296157 0.0149819 0)
(0.022771 0.0162241 0)
(0.0112081 0.00462434 0)
(0.0150061 -0.00106329 0)
(-0.011981 0.011124 0)
(-0.034526 0.00400408 0)
(-0.0316313 -0.00258567 0)
(-0.0252375 -0.0151019 0)
(0.0288923 0.000743837 0)
(0.0269859 0.0171733 0)
(0.0286684 0.0105254 0)
(0.00639799 0.022687 0)
(-0.0198147 0.00388344 0)
(0.00628055 -0.0115346 0)
(-0.0063135 -0.00271805 0)
(-0.0199877 0.0044821 0)
(-0.0409702 0.000832878 0)
(-0.0270226 -0.0274447 0)
(0.363554 -2.00455 0)
(1.10323 -1.97652 0)
(1.85455 -1.92869 0)
(2.57819 -1.93151 0)
(3.33202 -1.95914 0)
(4.08953 -2.00087 0)
(4.89285 -2.03864 0)
(5.74393 -2.01649 0)
(6.57454 -2.03032 0)
(7.35679 -2.01277 0)
(8.12962 -2.04826 0)
(8.89355 -2.06143 0)
(9.63781 -2.11362 0)
(10.4553 -2.11786 0)
(11.2966 -2.0996 0)
(12.1657 -2.06633 0)
(12.9915 -1.99834 0)
(13.7759 -2.07138 0)
(14.6157 -2.16649 0)
(15.4893 -2.15591 0)
(16.3773 -2.14479 0)
(17.2474 -2.14995 0)
(17.9834 -2.10773 0)
(18.7465 -2.11756 0)
(19.5897 -2.16162 0)
(20.4946 -2.10476 0)
(21.3722 -2.01148 0)
(22.1275 -2.04075 0)
(22.8813 -2.15563 0)
(23.751 -2.1103 0)
(24.5669 -1.99287 0)
(25.3353 -1.94112 0)
(26.1274 -1.84356 0)
(26.8301 -1.59734 0)
(27.4256 -1.44199 0)
(27.9817 -1.50841 0)
(28.5661 -1.54143 0)
(29.0956 -1.40466 0)
(29.5656 -1.22567 0)
(30.0736 -1.11545 0)
(30.521 -1.03185 0)
(30.9259 -0.927206 0)
(31.2521 -0.768841 0)
(31.5214 -0.587144 0)
(31.7287 -0.445219 0)
(31.8628 -0.28986 0)
(31.9636 -0.122347 0)
(32.0055 -0.0027397 0)
(31.9672 0.144335 0)
(31.8474 0.332188 0)
(31.6308 0.525642 0)
(31.3564 0.656581 0)
(31.0755 0.799294 0)
(30.7336 1.03953 0)
(30.3069 1.18638 0)
(29.8496 1.16503 0)
(29.4029 1.20181 0)
(28.9569 1.27216 0)
(28.4149 1.30093 0)
(27.8386 1.38233 0)
(27.2851 1.49035 0)
(26.7193 1.5281 0)
(26.0636 1.54488 0)
(25.4274 1.63473 0)
(24.8161 1.71806 0)
(24.1282 1.75173 0)
(23.3921 1.79801 0)
(22.6938 1.79045 0)
(22.0079 1.7397 0)
(21.3104 1.74265 0)
(20.6534 1.7221 0)
(20.009 1.6591 0)
(19.3857 1.63582 0)
(18.7432 1.60961 0)
(18.1176 1.57338 0)
(17.504 1.53392 0)
(16.8843 1.50698 0)
(16.3124 1.48911 0)
(15.7496 1.43498 0)
(15.1834 1.38533 0)
(14.6695 1.34242 0)
(14.1495 1.28642 0)
(13.6423 1.23934 0)
(13.1709 1.18147 0)
(12.7376 1.11632 0)
(12.3 1.05498 0)
(11.8863 0.995867 0)
(11.4835 0.955364 0)
(11.1203 0.937003 0)
(10.7547 0.909276 0)
(10.4112 0.856131 0)
(10.0766 0.794559 0)
(9.76718 0.746781 0)
(9.44397 0.721515 0)
(9.16228 0.706176 0)
(8.88725 0.689101 0)
(8.64911 0.659293 0)
(8.37873 0.645483 0)
(8.10397 0.622798 0)
(7.86416 0.625167 0)
(7.60674 0.616538 0)
(7.37258 0.59426 0)
(7.15569 0.584597 0)
(6.9369 0.573687 0)
(6.71368 0.551826 0)
(6.5039 0.52536 0)
(6.28195 0.49493 0)
(6.08908 0.473182 0)
(5.91301 0.447484 0)
(5.763 0.420697 0)
(5.60327 0.411306 0)
(5.44308 0.401235 0)
(5.29221 0.385459 0)
(5.12876 0.377229 0)
(4.94981 0.377577 0)
(4.79589 0.349016 0)
(4.6892 0.326119 0)
(4.5738 0.354398 0)
(4.40508 0.364126 0)
(4.25771 0.325143 0)
(4.14908 0.289466 0)
(4.04242 0.279477 0)
(3.92056 0.281183 0)
(3.79849 0.260169 0)
(3.70463 0.21186 0)
(3.64897 0.210644 0)
(3.54855 0.244433 0)
(3.43365 0.234591 0)
(3.34843 0.222557 0)
(3.24217 0.218898 0)
(3.16879 0.210018 0)
(3.10361 0.217245 0)
(3.02051 0.222365 0)
(2.93467 0.224226 0)
(2.85102 0.228672 0)
(2.75962 0.223804 0)
(2.68828 0.237592 0)
(2.59406 0.24704 0)
(2.49885 0.202621 0)
(2.43549 0.168199 0)
(2.36694 0.162454 0)
(2.29744 0.169473 0)
(2.22682 0.159624 0)
(2.16337 0.15406 0)
(2.11858 0.131465 0)
(2.07833 0.119483 0)
(2.02779 0.126385 0)
(1.96489 0.111638 0)
(1.91444 0.0890251 0)
(1.88756 0.112521 0)
(1.82277 0.13987 0)
(1.75971 0.123621 0)
(1.71006 0.0953102 0)
(1.69355 0.07709 0)
(1.66327 0.0917654 0)
(1.61974 0.0722811 0)
(1.60298 0.0867173 0)
(1.52479 0.111127 0)
(1.47944 0.0749586 0)
(1.46096 0.0560748 0)
(1.42667 0.0700453 0)
(1.38446 0.117833 0)
(1.3197 0.123714 0)
(1.2794 0.130122 0)
(1.22826 0.114337 0)
(1.22309 0.121339 0)
(1.17091 0.126087 0)
(1.14274 0.0556313 0)
(1.14002 0.0644078 0)
(1.08169 0.0598335 0)
(1.06954 0.0628783 0)
(1.03237 0.0885861 0)
(1.0145 0.0906747 0)
(0.975857 0.0864352 0)
(0.968466 0.0390994 0)
(0.977055 0.0341767 0)
(0.948707 0.0604502 0)
(0.918941 0.0845865 0)
(0.865338 0.0536094 0)
(0.840334 -0.00106053 0)
(0.829492 0.0105141 0)
(0.808308 0.0421948 0)
(0.781333 0.0656614 0)
(0.750174 0.0591494 0)
(0.72988 0.0285685 0)
(0.704744 0.0271799 0)
(0.690397 0.0183089 0)
(0.712328 0.0233201 0)
(0.711096 0.0561602 0)
(0.699545 0.0589434 0)
(0.693176 0.0903438 0)
(0.63583 0.0861633 0)
(0.62801 0.0748855 0)
(0.572828 0.087226 0)
(0.53311 0.0255451 0)
(0.542882 -0.0112608 0)
(0.537167 0.0247333 0)
(0.507265 0.0282988 0)
(0.513699 -0.000894431 0)
(0.526838 0.0317835 0)
(0.507207 0.0518926 0)
(0.482785 0.0352645 0)
(0.474492 0.03516 0)
(0.455972 0.0376895 0)
(0.419803 0.0201004 0)
(0.428924 0.00967101 0)
(0.435869 0.0268088 0)
(0.430499 0.0463891 0)
(0.412006 0.0594516 0)
(0.372106 0.044106 0)
(0.378415 0.00185684 0)
(0.387803 -0.0100413 0)
(0.373234 -0.0162261 0)
(0.383496 -0.0114375 0)
(0.372422 -0.00450272 0)
(0.390534 -0.0050779 0)
(0.401914 0.043198 0)
(0.365201 0.0784488 0)
(0.324378 0.0750499 0)
(0.294201 0.0536987 0)