/*--------------------------------*- C++ -*----------------------------------*\
| =========                 |                                                 |
| \\      /  F ield         | OpenFOAM: The Open Source CFD Toolbox           |
|  \\    /   O peration     | Version:  v2012                                 |
|   \\  /    A nd           | Website:  www.openfoam.com                      |
|    \\/     M anipulation  |                                                 |
\*---------------------------------------------------------------------------*/
FoamFile
{
    version     2.0;
    format      ascii;
    class       volScalarField;
    location    "100";
    object      aU;
}
// * * * * * * * * * * * * * * * * * * * * * * * * * * * * * * * * * * * * * //

dimensions      [0 0 0 0 0 0 0];


internalField   nonuniform List<scalar> 
65536
(
3.87047e-05
1.93235e-05
1.57534e-05
1.51436e-05
2.28403e-05
2.38364e-05
3.0188e-05
3.23642e-05
3.75895e-05
4.05424e-05
4.50596e-05
4.84557e-05
5.2515e-05
5.61126e-05
5.98718e-05
6.35044e-05
6.70543e-05
7.06167e-05
7.39956e-05
7.74286e-05
8.06399e-05
8.3912e-05
8.6943e-05
9.00364e-05
9.28705e-05
9.5772e-05
9.83948e-05
0.000101092
0.000103493
0.000105974
0.000108146
0.000110399
0.000112335
0.000114351
0.000116049
0.000117818
0.000119275
0.000120793
0.000122008
0.000123272
0.000124245
0.000125254
0.000125985
0.000126743
0.000127236
0.000127746
0.000128006
0.000128273
0.000128306
0.00012834
0.000128154
0.000127964
0.000127569
0.000127167
0.000126575
0.000125974
0.000125197
0.000124411
0.000123464
0.000122508
0.000121407
0.000120297
0.000119058
0.00011781
0.00011645
0.000115082
0.000113618
0.000112146
0.000110595
0.000109038
0.000107415
0.000105789
0.000104111
0.000102431
0.000100713
9.89952e-05
9.72509e-05
9.55088e-05
9.37509e-05
9.19976e-05
9.02376e-05
8.84847e-05
8.67328e-05
8.49906e-05
8.32559e-05
8.15334e-05
7.98237e-05
7.81285e-05
7.64505e-05
7.47892e-05
7.31484e-05
7.15263e-05
6.99272e-05
6.83486e-05
6.67948e-05
6.5263e-05
6.37574e-05
6.2275e-05
6.08194e-05
5.93881e-05
5.7984e-05
5.66048e-05
5.5253e-05
5.39264e-05
5.26271e-05
5.13533e-05
5.01064e-05
4.88849e-05
4.76899e-05
4.65201e-05
4.53762e-05
4.42572e-05
4.31633e-05
4.20939e-05
4.10489e-05
4.00278e-05
3.90303e-05
3.8056e-05
3.71046e-05
3.61757e-05
3.52687e-05
3.43835e-05
3.35195e-05
3.26764e-05
3.18537e-05
3.1051e-05
3.02679e-05
2.95041e-05
2.8759e-05
2.80324e-05
2.73237e-05
2.66326e-05
2.59587e-05
2.53017e-05
2.4661e-05
2.40364e-05
2.34275e-05
2.28339e-05
2.22551e-05
2.16911e-05
2.11412e-05
2.06052e-05
2.00828e-05
1.95736e-05
1.90773e-05
1.85936e-05
1.81222e-05
1.76627e-05
1.72149e-05
1.67785e-05
1.63532e-05
1.59388e-05
1.55348e-05
1.51412e-05
1.47576e-05
1.43837e-05
1.40194e-05
1.36644e-05
1.33184e-05
1.29812e-05
1.26527e-05
1.23325e-05
1.20205e-05
1.17165e-05
1.14202e-05
1.11315e-05
1.08502e-05
1.0576e-05
1.03089e-05
1.00486e-05
9.79489e-06
9.54772e-06
9.30686e-06
9.07217e-06
8.84349e-06
8.62066e-06
8.40354e-06
8.19198e-06
7.98585e-06
7.78501e-06
7.58932e-06
7.39865e-06
7.21288e-06
7.03189e-06
6.85555e-06
6.68375e-06
6.51638e-06
6.35331e-06
6.19445e-06
6.03969e-06
5.88893e-06
5.74205e-06
5.59898e-06
5.45961e-06
5.32384e-06
5.19159e-06
5.06276e-06
4.93728e-06
4.81505e-06
4.69599e-06
4.58003e-06
4.46708e-06
4.35706e-06
4.2499e-06
4.14552e-06
4.04386e-06
3.94484e-06
3.8484e-06
3.75446e-06
3.66296e-06
3.57384e-06
3.48703e-06
3.40248e-06
3.32011e-06
3.23987e-06
3.16171e-06
3.08556e-06
3.01138e-06
2.9391e-06
2.86868e-06
2.80006e-06
2.73319e-06
2.66803e-06
2.60452e-06
2.54261e-06
2.48227e-06
2.42344e-06
2.36608e-06
2.31014e-06
2.25559e-06
2.20238e-06
2.15048e-06
2.09983e-06
2.05041e-06
2.00218e-06
1.95509e-06
1.90912e-06
1.86423e-06
1.82038e-06
1.77754e-06
1.73569e-06
1.69477e-06
1.65478e-06
1.61567e-06
1.57742e-06
1.54e-06
1.50338e-06
1.46754e-06
1.43245e-06
1.39809e-06
1.36443e-06
1.33144e-06
1.29912e-06
1.26743e-06
1.23636e-06
1.20588e-06
1.17597e-06
1.14663e-06
1.11782e-06
1.08954e-06
1.06176e-06
1.03448e-06
1.00767e-06
9.81329e-07
9.55437e-07
9.29983e-07
9.04956e-07
8.80343e-07
8.56135e-07
8.32322e-07
8.08895e-07
7.85845e-07
7.63165e-07
7.40846e-07
7.18883e-07
6.97268e-07
6.75997e-07
6.55064e-07
6.34464e-07
6.14193e-07
5.94248e-07
5.74624e-07
5.5532e-07
5.36332e-07
5.17658e-07
4.99297e-07
4.81247e-07
4.63507e-07
4.46076e-07
4.28953e-07
4.12138e-07
3.95631e-07
3.79431e-07
3.6354e-07
3.47957e-07
3.32683e-07
3.17719e-07
3.03065e-07
2.88722e-07
2.74691e-07
2.60973e-07
2.47569e-07
2.34479e-07
2.21706e-07
2.09249e-07
1.9711e-07
1.85289e-07
1.73788e-07
1.62606e-07
1.51745e-07
1.41206e-07
1.30988e-07
1.21092e-07
1.11519e-07
1.02269e-07
9.33405e-08
8.47349e-08
7.64515e-08
6.84901e-08
6.08502e-08
5.35312e-08
4.65324e-08
3.9853e-08
3.34923e-08
2.74494e-08
2.17238e-08
1.63158e-08
1.12283e-08
6.47673e-09
2.2108e-09
2.56696e-09
6.27685e-09
9.81316e-09
1.30721e-08
1.60421e-08
1.8722e-08
2.11131e-08
2.3218e-08
2.50394e-08
2.65808e-08
2.78455e-08
2.88375e-08
2.95606e-08
3.00191e-08
3.02174e-08
3.01603e-08
2.98525e-08
2.92995e-08
2.85065e-08
2.74797e-08
2.62252e-08
2.47498e-08
2.30613e-08
2.11682e-08
1.9081e-08
1.68127e-08
1.43825e-08
1.18217e-08
9.19347e-09
6.65996e-09
4.73798e-09
4.68536e-09
6.77853e-09
9.86985e-09
1.33862e-08
1.7145e-08
2.10753e-08
2.51415e-08
2.93208e-08
3.35966e-08
3.79546e-08
4.23822e-08
4.68674e-08
5.13986e-08
5.59645e-08
6.0554e-08
6.5156e-08
6.97595e-08
7.43534e-08
7.89267e-08
8.34687e-08
8.79683e-08
9.2415e-08
9.6798e-08
1.01107e-07
1.05331e-07
1.09461e-07
1.13486e-07
1.17397e-07
1.21183e-07
1.24837e-07
1.28349e-07
1.31711e-07
1.34914e-07
1.37952e-07
1.40816e-07
1.435e-07
1.45998e-07
1.48304e-07
1.50412e-07
1.5232e-07
1.54021e-07
1.55514e-07
1.56795e-07
1.57863e-07
1.58716e-07
1.59354e-07
1.59777e-07
1.59985e-07
1.59981e-07
1.59767e-07
1.59346e-07
1.58722e-07
1.579e-07
1.56884e-07
1.55682e-07
1.543e-07
1.52745e-07
1.51026e-07
1.49151e-07
1.4713e-07
1.44972e-07
1.42689e-07
1.40291e-07
1.3779e-07
1.35198e-07
1.32526e-07
1.29786e-07
1.26993e-07
1.24158e-07
1.21295e-07
1.18415e-07
1.15533e-07
1.12661e-07
1.09811e-07
1.06996e-07
1.04228e-07
1.01518e-07
9.88773e-08
9.63169e-08
9.38463e-08
9.14752e-08
8.92117e-08
8.70642e-08
8.5039e-08
8.31431e-08
8.13804e-08
7.9757e-08
7.82741e-08
7.69369e-08
7.57433e-08
7.46983e-08
7.37961e-08
7.30424e-08
7.24262e-08
7.19557e-08
7.16129e-08
7.1411e-08
7.13221e-08
7.13681e-08
7.15066e-08
7.17746e-08
7.21076e-08
7.25666e-08
7.30542e-08
7.36696e-08
7.42654e-08
7.49999e-08
7.5651e-08
7.64664e-08
7.71131e-08
7.79723e-08
7.85485e-08
7.94178e-08
7.98507e-08
8.0703e-08
8.0913e-08
8.17298e-08
8.1631e-08
8.24058e-08
8.19056e-08
8.26458e-08
8.16462e-08
8.23751e-08
8.07736e-08
8.15307e-08
7.92227e-08
8.00638e-08
7.69462e-08
7.79399e-08
7.39183e-08
7.51384e-08
7.01417e-08
7.16481e-08
6.56597e-08
6.74559e-08
6.05777e-08
6.2525e-08
5.50964e-08
5.6764e-08
4.955e-08
4.99964e-08
4.44127e-08
4.19854e-08
4.01703e-08
3.2643e-08
3.67951e-08
2.24278e-08
3.18952e-08
9.76213e-09
2.10359e-08
3.64324e-08
2.51152e-06
2.35576e-05
1.00521e-05
1.51192e-05
1.23658e-05
1.36302e-05
1.23315e-05
1.28895e-05
1.1994e-05
1.22685e-05
1.15636e-05
1.16385e-05
1.10591e-05
1.09686e-05
1.04705e-05
1.02562e-05
9.798e-06
9.50405e-06
9.05357e-06
8.71355e-06
8.25384e-06
7.88676e-06
7.41404e-06
7.0283e-06
6.54676e-06
6.14588e-06
5.66251e-06
5.24928e-06
4.77092e-06
4.34918e-06
3.88145e-06
3.45639e-06
3.00352e-06
2.5814e-06
2.14646e-06
1.73456e-06
1.31955e-06
9.28421e-07
5.3403e-07
2.31331e-07
2.42866e-07
6.16287e-07
9.23328e-07
1.27189e-06
1.5625e-06
1.8805e-06
2.14446e-06
2.43143e-06
2.66613e-06
2.92169e-06
3.12618e-06
3.35052e-06
3.52487e-06
3.71839e-06
3.86301e-06
4.02644e-06
4.14251e-06
4.27705e-06
4.36623e-06
4.47332e-06
4.53758e-06
4.61892e-06
4.6605e-06
4.71797e-06
4.73919e-06
4.77485e-06
4.7781e-06
4.79411e-06
4.78172e-06
4.78029e-06
4.75452e-06
4.73787e-06
4.70081e-06
4.67111e-06
4.62472e-06
4.58404e-06
4.53007e-06
4.48036e-06
4.42038e-06
4.36343e-06
4.29883e-06
4.23625e-06
4.16824e-06
4.10147e-06
4.0311e-06
3.9614e-06
3.88956e-06
3.818e-06
3.74546e-06
3.67295e-06
3.60034e-06
3.52765e-06
3.45551e-06
3.38327e-06
3.31203e-06
3.24074e-06
3.17076e-06
3.10082e-06
3.03238e-06
2.96411e-06
2.89743e-06
2.83106e-06
2.76632e-06
2.70203e-06
2.63935e-06
2.57724e-06
2.51672e-06
2.45688e-06
2.39858e-06
2.34104e-06
2.28498e-06
2.22977e-06
2.17595e-06
2.12305e-06
2.07147e-06
2.02085e-06
1.97149e-06
1.9231e-06
1.87591e-06
1.82971e-06
1.78464e-06
1.74056e-06
1.69757e-06
1.65554e-06
1.61455e-06
1.5745e-06
1.53545e-06
1.49731e-06
1.46012e-06
1.42383e-06
1.38843e-06
1.35389e-06
1.32021e-06
1.28736e-06
1.25532e-06
1.22408e-06
1.19361e-06
1.16391e-06
1.13495e-06
1.10671e-06
1.07918e-06
1.05234e-06
1.02617e-06
1.00066e-06
9.75784e-07
9.51538e-07
9.279e-07
9.04857e-07
8.82391e-07
8.60492e-07
8.39141e-07
8.18328e-07
7.98036e-07
7.78255e-07
7.58969e-07
7.40167e-07
7.21837e-07
7.03966e-07
6.86542e-07
6.69555e-07
6.52993e-07
6.36845e-07
6.21101e-07
6.0575e-07
5.90782e-07
5.76189e-07
5.61959e-07
5.48085e-07
5.34556e-07
5.21366e-07
5.08503e-07
4.95962e-07
4.83733e-07
4.7181e-07
4.60183e-07
4.48847e-07
4.37793e-07
4.27016e-07
4.16508e-07
4.06263e-07
3.96274e-07
3.86536e-07
3.77042e-07
3.67787e-07
3.58766e-07
3.49973e-07
3.41403e-07
3.33051e-07
3.24912e-07
3.16983e-07
3.09258e-07
3.01734e-07
2.94407e-07
2.87273e-07
2.80329e-07
2.73571e-07
2.66996e-07
2.60603e-07
2.54387e-07
2.48347e-07
2.4248e-07
2.36784e-07
2.31257e-07
2.25899e-07
2.20706e-07
2.15677e-07
2.10812e-07
2.06109e-07
2.01566e-07
1.97183e-07
1.92959e-07
1.88892e-07
1.84981e-07
1.81224e-07
1.77621e-07
1.74169e-07
1.70868e-07
1.67714e-07
1.64705e-07
1.61839e-07
1.59113e-07
1.56523e-07
1.54066e-07
1.51736e-07
1.4953e-07
1.47442e-07
1.45466e-07
1.43597e-07
1.41828e-07
1.40152e-07
1.38562e-07
1.37049e-07
1.35607e-07
1.34227e-07
1.32901e-07
1.3162e-07
1.30375e-07
1.29157e-07
1.27959e-07
1.26771e-07
1.25584e-07
1.24391e-07
1.23182e-07
1.2195e-07
1.20687e-07
1.19386e-07
1.18038e-07
1.16638e-07
1.15178e-07
1.13653e-07
1.12057e-07
1.10385e-07
1.08631e-07
1.06791e-07
1.04862e-07
1.02839e-07
1.0072e-07
9.8503e-08
9.61849e-08
9.37648e-08
9.12417e-08
8.86152e-08
8.58857e-08
8.30541e-08
8.01218e-08
7.70912e-08
7.39655e-08
7.07485e-08
6.74455e-08
6.40627e-08
6.0608e-08
5.70913e-08
5.3525e-08
4.99246e-08
4.63104e-08
4.27087e-08
3.91548e-08
3.56967e-08
3.24005e-08
2.93576e-08
2.66929e-08
2.45678e-08
2.31678e-08
2.26605e-08
2.31323e-08
2.45482e-08
2.67739e-08
2.96369e-08
3.29762e-08
3.66626e-08
4.05989e-08
4.47137e-08
4.89542e-08
5.32807e-08
5.76626e-08
6.20757e-08
6.65002e-08
7.09193e-08
7.53189e-08
7.96864e-08
8.40105e-08
8.82812e-08
9.24891e-08
9.66254e-08
1.00682e-07
1.04652e-07
1.08527e-07
1.123e-07
1.15966e-07
1.19519e-07
1.22951e-07
1.26258e-07
1.29435e-07
1.32476e-07
1.35377e-07
1.38133e-07
1.40741e-07
1.43195e-07
1.45493e-07
1.47631e-07
1.49606e-07
1.51414e-07
1.53054e-07
1.54521e-07
1.55815e-07
1.56933e-07
1.57874e-07
1.58634e-07
1.59214e-07
1.59612e-07
1.59827e-07
1.59858e-07
1.59703e-07
1.59364e-07
1.5884e-07
1.5813e-07
1.57236e-07
1.56158e-07
1.54897e-07
1.53453e-07
1.51827e-07
1.50023e-07
1.4804e-07
1.45882e-07
1.4355e-07
1.41048e-07
1.38378e-07
1.35543e-07
1.32548e-07
1.29396e-07
1.26092e-07
1.22642e-07
1.1905e-07
1.15323e-07
1.11469e-07
1.07493e-07
1.03407e-07
9.92182e-08
9.49386e-08
9.05806e-08
8.61585e-08
8.1689e-08
7.71919e-08
7.26908e-08
6.82142e-08
6.37966e-08
5.94812e-08
5.53215e-08
5.13844e-08
4.77531e-08
4.45288e-08
4.18295e-08
3.97823e-08
3.85072e-08
3.80925e-08
3.85709e-08
3.99097e-08
4.20211e-08
4.47856e-08
4.80766e-08
5.17764e-08
5.57838e-08
6.00153e-08
6.4403e-08
6.88921e-08
7.34383e-08
7.80049e-08
8.25616e-08
8.70829e-08
9.15467e-08
9.59341e-08
1.00228e-07
1.04415e-07
1.0848e-07
1.12412e-07
1.16201e-07
1.19836e-07
1.2331e-07
1.26614e-07
1.29741e-07
1.32687e-07
1.35445e-07
1.3801e-07
1.4038e-07
1.42552e-07
1.44522e-07
1.46291e-07
1.47857e-07
1.49221e-07
1.50383e-07
1.51345e-07
1.52109e-07
1.5268e-07
1.5306e-07
1.53255e-07
1.53269e-07
1.53109e-07
1.52782e-07
1.52294e-07
1.51654e-07
1.5087e-07
1.49952e-07
1.48908e-07
1.47749e-07
1.46485e-07
1.45127e-07
1.43686e-07
1.42173e-07
1.406e-07
1.38978e-07
1.37318e-07
1.35633e-07
1.33933e-07
1.32229e-07
1.30534e-07
1.28857e-07
1.2721e-07
1.25601e-07
1.2404e-07
1.22537e-07
1.211e-07
1.19736e-07
1.18452e-07
1.17255e-07
1.1615e-07
1.15143e-07
1.14236e-07
1.13435e-07
1.12739e-07
1.12153e-07
1.11675e-07
1.11308e-07
1.11048e-07
1.10898e-07
1.10849e-07
1.10907e-07
1.11056e-07
1.11308e-07
1.11636e-07
1.12061e-07
1.12543e-07
1.13116e-07
1.1372e-07
1.14412e-07
1.151e-07
1.15877e-07
1.16605e-07
1.17432e-07
1.1815e-07
1.18991e-07
1.19643e-07
1.20464e-07
1.20988e-07
1.21758e-07
1.22088e-07
1.22782e-07
1.22847e-07
1.2345e-07
1.23173e-07
1.2368e-07
1.22982e-07
1.23401e-07
1.22199e-07
1.22556e-07
1.20768e-07
1.211e-07
1.18649e-07
1.19006e-07
1.15823e-07
1.16268e-07
1.12304e-07
1.12896e-07
1.0814e-07
1.0892e-07
1.03427e-07
1.04381e-07
9.83315e-08
9.93197e-08
9.31086e-08
9.37715e-08
8.81112e-08
8.77837e-08
8.37428e-08
8.15307e-08
8.02692e-08
7.56641e-08
7.73099e-08
7.20558e-08
7.2254e-08
7.44035e-08
5.25843e-08
9.15412e-08
1.74802e-05
1.61611e-05
1.02618e-05
1.40525e-05
1.0547e-05
1.2908e-05
1.07534e-05
1.21707e-05
1.06945e-05
1.15142e-05
1.04251e-05
1.08317e-05
9.9983e-06
1.01055e-05
9.43749e-06
9.34421e-06
8.76428e-06
8.55601e-06
8.00692e-06
7.74256e-06
7.19452e-06
6.90535e-06
6.3508e-06
6.04956e-06
5.49393e-06
5.18457e-06
4.63791e-06
4.32221e-06
3.79473e-06
3.47501e-06
2.97521e-06
2.65481e-06
2.18922e-06
1.87181e-06
1.44654e-06
1.13537e-06
7.63191e-07
4.62356e-07
2.66373e-07
2.63769e-07
5.97098e-07
8.03547e-07
1.11309e-06
1.3186e-06
1.59057e-06
1.7786e-06
2.01502e-06
2.1816e-06
2.3846e-06
2.52883e-06
2.70044e-06
2.82271e-06
2.96509e-06
3.06647e-06
3.18176e-06
3.26357e-06
3.35397e-06
3.41779e-06
3.48574e-06
3.53333e-06
3.58133e-06
3.61441e-06
3.64492e-06
3.66517e-06
3.68057e-06
3.68955e-06
3.69208e-06
3.69126e-06
3.68296e-06
3.67366e-06
3.6564e-06
3.6398e-06
3.6152e-06
3.59237e-06
3.56183e-06
3.53371e-06
3.49843e-06
3.46585e-06
3.42685e-06
3.39054e-06
3.34866e-06
3.30928e-06
3.26521e-06
3.22334e-06
3.17767e-06
3.13383e-06
3.08703e-06
3.04169e-06
2.99415e-06
2.94772e-06
2.89978e-06
2.85262e-06
2.80454e-06
2.75699e-06
2.70901e-06
2.66135e-06
2.61367e-06
2.56616e-06
2.51894e-06
2.47181e-06
2.42519e-06
2.37862e-06
2.33273e-06
2.28689e-06
2.24185e-06
2.19688e-06
2.15277e-06
2.10878e-06
2.0657e-06
2.02278e-06
1.98078e-06
1.93901e-06
1.89816e-06
1.8576e-06
1.81794e-06
1.77862e-06
1.74018e-06
1.70214e-06
1.66496e-06
1.62821e-06
1.59229e-06
1.55685e-06
1.52219e-06
1.48805e-06
1.45467e-06
1.42182e-06
1.38969e-06
1.35812e-06
1.32724e-06
1.29693e-06
1.26728e-06
1.23819e-06
1.20975e-06
1.18187e-06
1.1546e-06
1.12789e-06
1.10177e-06
1.0762e-06
1.0512e-06
1.02673e-06
1.00281e-06
9.79412e-07
9.56539e-07
9.34169e-07
9.12306e-07
8.9093e-07
8.70041e-07
8.49622e-07
8.2967e-07
8.10171e-07
7.91119e-07
7.72503e-07
7.54316e-07
7.36547e-07
7.1919e-07
7.02233e-07
6.8567e-07
6.69491e-07
6.53688e-07
6.38254e-07
6.23179e-07
6.08457e-07
5.94079e-07
5.80037e-07
5.66325e-07
5.52935e-07
5.39859e-07
5.27091e-07
5.14623e-07
5.02449e-07
4.90563e-07
4.78957e-07
4.67626e-07
4.56563e-07
4.45763e-07
4.35219e-07
4.24926e-07
4.14878e-07
4.0507e-07
3.95497e-07
3.86154e-07
3.77035e-07
3.68136e-07
3.59453e-07
3.50981e-07
3.42716e-07
3.34653e-07
3.2679e-07
3.19121e-07
3.11644e-07
3.04356e-07
2.97252e-07
2.90331e-07
2.83588e-07
2.77023e-07
2.70631e-07
2.64412e-07
2.58362e-07
2.52481e-07
2.46765e-07
2.41214e-07
2.35826e-07
2.306e-07
2.25534e-07
2.20628e-07
2.15881e-07
2.11291e-07
2.06857e-07
2.0258e-07
1.98457e-07
1.94488e-07
1.90672e-07
1.87007e-07
1.83493e-07
1.80128e-07
1.76909e-07
1.73836e-07
1.70906e-07
1.68115e-07
1.65462e-07
1.62942e-07
1.60551e-07
1.58286e-07
1.56141e-07
1.54112e-07
1.52193e-07
1.50377e-07
1.48658e-07
1.47029e-07
1.45483e-07
1.44013e-07
1.42609e-07
1.41265e-07
1.39971e-07
1.3872e-07
1.37502e-07
1.36308e-07
1.35131e-07
1.33961e-07
1.3279e-07
1.31608e-07
1.30409e-07
1.29183e-07
1.27922e-07
1.2662e-07
1.25268e-07
1.2386e-07
1.22388e-07
1.20848e-07
1.19231e-07
1.17534e-07
1.1575e-07
1.13876e-07
1.11906e-07
1.09837e-07
1.07665e-07
1.05387e-07
1.03002e-07
1.00505e-07
9.7897e-08
9.51754e-08
9.23398e-08
8.93898e-08
8.63256e-08
8.3148e-08
7.98579e-08
7.64572e-08
7.2948e-08
6.9333e-08
6.56156e-08
6.18e-08
5.78909e-08
5.38944e-08
4.98175e-08
4.56691e-08
4.14607e-08
3.72073e-08
3.29302e-08
2.86608e-08
2.44498e-08
2.03856e-08
1.66346e-08
1.35256e-08
1.16533e-08
1.16865e-08
1.36498e-08
1.69063e-08
2.08716e-08
2.52185e-08
2.97801e-08
3.44667e-08
3.92261e-08
4.40247e-08
4.8839e-08
5.36514e-08
5.84478e-08
6.32159e-08
6.79454e-08
7.26266e-08
7.72506e-08
8.18092e-08
8.62944e-08
9.06989e-08
9.50154e-08
9.92371e-08
1.03357e-07
1.0737e-07
1.11269e-07
1.15048e-07
1.18701e-07
1.22224e-07
1.25611e-07
1.28857e-07
1.31957e-07
1.34908e-07
1.37704e-07
1.40343e-07
1.42819e-07
1.4513e-07
1.47272e-07
1.49242e-07
1.51038e-07
1.52656e-07
1.54095e-07
1.55353e-07
1.56427e-07
1.57315e-07
1.58017e-07
1.58532e-07
1.58857e-07
1.58992e-07
1.58938e-07
1.58693e-07
1.58258e-07
1.57633e-07
1.56817e-07
1.55813e-07
1.5462e-07
1.5324e-07
1.51674e-07
1.49925e-07
1.47993e-07
1.45881e-07
1.43592e-07
1.4113e-07
1.38496e-07
1.35695e-07
1.32732e-07
1.2961e-07
1.26335e-07
1.22913e-07
1.19349e-07
1.15652e-07
1.11829e-07
1.07889e-07
1.03842e-07
9.96994e-08
9.54742e-08
9.11813e-08
8.68379e-08
8.24645e-08
7.80849e-08
7.37277e-08
6.94275e-08
6.52261e-08
6.11743e-08
5.73344e-08
5.37813e-08
5.06039e-08
4.7903e-08
4.57867e-08
4.43585e-08
4.37013e-08
4.38601e-08
4.48316e-08
4.65651e-08
4.89754e-08
5.19596e-08
5.54129e-08
5.92378e-08
6.3349e-08
6.76741e-08
7.21528e-08
7.67348e-08
8.1378e-08
8.60474e-08
9.07128e-08
9.53486e-08
9.99324e-08
1.04445e-07
1.08868e-07
1.13186e-07
1.17385e-07
1.21454e-07
1.25379e-07
1.29151e-07
1.3276e-07
1.36197e-07
1.39456e-07
1.42529e-07
1.4541e-07
1.48095e-07
1.50577e-07
1.52855e-07
1.54925e-07
1.56784e-07
1.58433e-07
1.5987e-07
1.61095e-07
1.6211e-07
1.62916e-07
1.63516e-07
1.63914e-07
1.64113e-07
1.6412e-07
1.63938e-07
1.63575e-07
1.63037e-07
1.62333e-07
1.61471e-07
1.6046e-07
1.59309e-07
1.58028e-07
1.56628e-07
1.5512e-07
1.53516e-07
1.51827e-07
1.50065e-07
1.48243e-07
1.46372e-07
1.44466e-07
1.42536e-07
1.40596e-07
1.38658e-07
1.36733e-07
1.34834e-07
1.32972e-07
1.31158e-07
1.29403e-07
1.27718e-07
1.26111e-07
1.24591e-07
1.23167e-07
1.21846e-07
1.20633e-07
1.19536e-07
1.18557e-07
1.17702e-07
1.16973e-07
1.16372e-07
1.15898e-07
1.15555e-07
1.15336e-07
1.15246e-07
1.15274e-07
1.15426e-07
1.15685e-07
1.16062e-07
1.16528e-07
1.17105e-07
1.1775e-07
1.18497e-07
1.19284e-07
1.20169e-07
1.21056e-07
1.2204e-07
1.2298e-07
1.24025e-07
1.24965e-07
1.26033e-07
1.26915e-07
1.27969e-07
1.28731e-07
1.29739e-07
1.30315e-07
1.3125e-07
1.31569e-07
1.32416e-07
1.32404e-07
1.33156e-07
1.32738e-07
1.33403e-07
1.32501e-07
1.331e-07
1.31641e-07
1.32208e-07
1.30124e-07
1.30705e-07
1.2794e-07
1.28586e-07
1.25107e-07
1.25866e-07
1.21678e-07
1.22577e-07
1.17749e-07
1.18756e-07
1.13475e-07
1.14436e-07
1.09075e-07
1.09635e-07
1.04832e-07
1.04366e-07
1.01042e-07
9.87416e-08
9.78599e-08
9.33374e-08
9.49094e-08
9.03114e-08
8.97317e-08
9.8895e-08
6.45761e-08
7.6753e-08
7.90471e-06
1.55522e-05
1.00507e-05
1.46989e-05
1.15346e-05
1.38557e-05
1.17722e-05
1.32056e-05
1.16162e-05
1.25425e-05
1.1319e-05
1.18297e-05
1.09115e-05
1.10824e-05
1.0383e-05
1.03205e-05
9.73785e-06
9.54923e-06
9.00266e-06
8.76031e-06
8.21017e-06
7.94686e-06
7.38609e-06
7.10942e-06
6.54846e-06
6.25603e-06
5.70985e-06
5.39894e-06
4.88162e-06
4.55301e-06
4.07674e-06
3.73545e-06
3.31221e-06
2.96757e-06
2.61322e-06
2.28091e-06
2.02218e-06
1.7315e-06
1.61259e-06
1.41674e-06
1.47575e-06
1.42051e-06
1.61839e-06
1.67619e-06
1.92787e-06
2.0417e-06
2.2955e-06
2.42792e-06
2.66286e-06
2.79487e-06
3.00301e-06
3.12525e-06
3.30409e-06
3.41232e-06
3.56174e-06
3.65404e-06
3.77489e-06
3.85064e-06
3.94459e-06
4.00407e-06
4.07331e-06
4.11724e-06
4.16421e-06
4.19359e-06
4.22082e-06
4.23677e-06
4.24682e-06
4.25056e-06
4.24587e-06
4.23864e-06
4.22149e-06
4.20452e-06
4.17702e-06
4.1515e-06
4.11552e-06
4.08259e-06
4.03978e-06
4.00052e-06
3.9523e-06
3.90774e-06
3.85534e-06
3.8064e-06
3.75087e-06
3.69842e-06
3.64063e-06
3.58546e-06
3.52616e-06
3.46898e-06
3.40878e-06
3.35023e-06
3.28964e-06
3.23029e-06
3.16974e-06
3.11009e-06
3.04993e-06
2.99039e-06
2.93092e-06
2.87187e-06
2.81332e-06
2.75507e-06
2.69764e-06
2.64044e-06
2.58429e-06
2.52835e-06
2.47361e-06
2.4191e-06
2.36587e-06
2.3129e-06
2.26128e-06
2.20995e-06
2.15997e-06
2.11036e-06
2.06208e-06
2.01422e-06
1.96766e-06
1.92157e-06
1.87674e-06
1.83244e-06
1.78932e-06
1.7468e-06
1.7054e-06
1.66462e-06
1.62491e-06
1.58586e-06
1.54782e-06
1.51044e-06
1.47403e-06
1.4383e-06
1.40348e-06
1.36934e-06
1.33606e-06
1.30346e-06
1.27168e-06
1.24057e-06
1.21023e-06
1.18056e-06
1.15162e-06
1.12332e-06
1.09573e-06
1.06876e-06
1.04245e-06
1.01675e-06
9.91679e-07
9.67196e-07
9.43311e-07
9.1999e-07
8.97239e-07
8.75029e-07
8.53362e-07
8.32212e-07
8.11579e-07
7.91441e-07
7.71794e-07
7.5262e-07
7.33913e-07
7.15658e-07
6.97847e-07
6.80467e-07
6.6351e-07
6.46963e-07
6.30817e-07
6.15063e-07
5.99691e-07
5.84691e-07
5.70055e-07
5.55773e-07
5.41838e-07
5.28239e-07
5.1497e-07
5.02022e-07
4.89387e-07
4.77059e-07
4.65029e-07
4.5329e-07
4.41836e-07
4.3066e-07
4.19755e-07
4.09115e-07
3.98734e-07
3.88607e-07
3.78726e-07
3.69088e-07
3.59687e-07
3.50518e-07
3.41576e-07
3.32856e-07
3.24355e-07
3.16068e-07
3.07991e-07
3.00121e-07
2.92454e-07
2.84987e-07
2.77717e-07
2.70641e-07
2.63756e-07
2.57061e-07
2.50554e-07
2.44232e-07
2.38093e-07
2.32137e-07
2.26363e-07
2.20768e-07
2.15353e-07
2.10116e-07
2.05057e-07
2.00176e-07
1.95471e-07
1.90944e-07
1.86592e-07
1.82417e-07
1.78417e-07
1.74591e-07
1.7094e-07
1.67462e-07
1.64155e-07
1.61019e-07
1.58051e-07
1.55248e-07
1.52608e-07
1.50127e-07
1.47802e-07
1.45627e-07
1.43598e-07
1.41708e-07
1.39952e-07
1.38322e-07
1.36811e-07
1.3541e-07
1.34112e-07
1.32908e-07
1.31787e-07
1.30741e-07
1.29759e-07
1.28832e-07
1.27949e-07
1.27101e-07
1.26276e-07
1.25466e-07
1.2466e-07
1.23848e-07
1.2302e-07
1.22169e-07
1.21284e-07
1.20357e-07
1.19379e-07
1.18344e-07
1.17243e-07
1.16069e-07
1.14817e-07
1.13479e-07
1.1205e-07
1.10525e-07
1.08899e-07
1.07167e-07
1.05327e-07
1.03374e-07
1.01305e-07
9.91193e-08
9.68134e-08
9.43864e-08
9.18371e-08
8.91651e-08
8.63704e-08
8.34533e-08
8.04149e-08
7.72565e-08
7.39802e-08
7.05885e-08
6.70848e-08
6.34727e-08
5.97571e-08
5.59434e-08
5.20386e-08
4.80509e-08
4.39909e-08
3.98722e-08
3.57133e-08
3.15409e-08
2.73953e-08
2.33426e-08
1.9499e-08
1.60802e-08
1.34842e-08
1.23131e-08
1.30135e-08
1.5369e-08
1.87907e-08
2.28174e-08
2.71881e-08
3.1762e-08
3.64598e-08
4.12328e-08
4.60488e-08
5.08847e-08
5.57227e-08
6.05484e-08
6.53495e-08
7.01151e-08
7.48353e-08
7.95011e-08
8.41039e-08
8.86352e-08
9.30876e-08
9.74536e-08
1.01726e-07
1.05898e-07
1.09963e-07
1.13915e-07
1.17747e-07
1.21454e-07
1.2503e-07
1.28469e-07
1.31766e-07
1.34917e-07
1.37917e-07
1.40761e-07
1.43444e-07
1.45964e-07
1.48316e-07
1.50496e-07
1.52501e-07
1.54329e-07
1.55976e-07
1.5744e-07
1.58717e-07
1.59807e-07
1.60707e-07
1.61415e-07
1.6193e-07
1.62251e-07
1.62375e-07
1.62304e-07
1.62035e-07
1.61569e-07
1.60904e-07
1.60042e-07
1.58982e-07
1.57725e-07
1.56272e-07
1.54622e-07
1.52778e-07
1.50741e-07
1.48512e-07
1.46093e-07
1.43486e-07
1.40694e-07
1.37719e-07
1.34563e-07
1.31231e-07
1.27725e-07
1.24049e-07
1.20207e-07
1.16205e-07
1.12045e-07
1.07734e-07
1.03277e-07
9.86802e-08
9.39497e-08
8.90929e-08
8.41175e-08
7.90321e-08
7.38462e-08
6.85708e-08
6.32186e-08
5.7805e-08
5.2349e-08
4.68754e-08
4.14186e-08
3.60293e-08
3.07875e-08
2.58292e-08
2.1399e-08
1.79365e-08
1.61142e-08
1.65054e-08
1.89789e-08
2.28629e-08
2.75539e-08
3.26879e-08
3.80638e-08
4.35672e-08
4.91286e-08
5.47022e-08
6.02553e-08
6.57633e-08
7.12064e-08
7.65679e-08
8.18333e-08
8.69895e-08
9.20248e-08
9.69283e-08
1.0169e-07
1.063e-07
1.1075e-07
1.15031e-07
1.19136e-07
1.23058e-07
1.2679e-07
1.30327e-07
1.33662e-07
1.36792e-07
1.39711e-07
1.42417e-07
1.44907e-07
1.47178e-07
1.49229e-07
1.51059e-07
1.52669e-07
1.54059e-07
1.55229e-07
1.56183e-07
1.56923e-07
1.57453e-07
1.57777e-07
1.579e-07
1.57827e-07
1.57566e-07
1.57123e-07
1.56505e-07
1.55722e-07
1.54781e-07
1.53694e-07
1.52468e-07
1.51116e-07
1.49647e-07
1.48073e-07
1.46405e-07
1.44656e-07
1.42836e-07
1.4096e-07
1.39038e-07
1.37083e-07
1.35107e-07
1.33122e-07
1.31141e-07
1.29175e-07
1.27235e-07
1.25333e-07
1.23479e-07
1.21684e-07
1.19956e-07
1.18305e-07
1.16739e-07
1.15267e-07
1.13893e-07
1.12625e-07
1.11468e-07
1.10426e-07
1.09501e-07
1.08698e-07
1.08016e-07
1.07458e-07
1.0702e-07
1.06706e-07
1.06505e-07
1.06425e-07
1.06448e-07
1.06586e-07
1.0681e-07
1.07142e-07
1.07537e-07
1.08034e-07
1.08563e-07
1.09189e-07
1.0981e-07
1.10527e-07
1.11187e-07
1.11954e-07
1.12597e-07
1.13372e-07
1.13935e-07
1.14679e-07
1.15094e-07
1.15772e-07
1.15964e-07
1.16548e-07
1.16436e-07
1.16909e-07
1.16407e-07
1.16763e-07
1.15781e-07
1.16028e-07
1.1447e-07
1.14635e-07
1.12401e-07
1.12526e-07
1.09517e-07
1.09662e-07
1.05781e-07
1.06016e-07
1.01179e-07
1.01581e-07
9.57301e-08
9.63577e-08
8.94986e-08
9.03502e-08
8.26197e-08
8.35434e-08
7.53408e-08
7.5882e-08
6.80759e-08
6.72668e-08
6.14521e-08
5.76654e-08
5.63111e-08
4.76501e-08
5.37702e-08
4.03749e-08
5.56385e-08
4.82879e-08
4.4761e-08
7.86111e-08
1.47618e-05
1.47761e-05
1.20604e-05
1.43298e-05
1.13398e-05
1.36559e-05
1.10733e-05
1.29738e-05
1.08834e-05
1.22337e-05
1.06545e-05
1.14387e-05
1.03105e-05
1.06258e-05
9.8122e-06
9.82137e-06
9.16468e-06
9.02587e-06
8.40901e-06
8.21879e-06
7.59167e-06
7.38684e-06
6.74515e-06
6.52945e-06
5.89074e-06
5.65718e-06
5.04223e-06
4.78539e-06
4.21228e-06
3.93194e-06
3.4152e-06
3.11596e-06
2.66891e-06
2.35922e-06
2.00055e-06
1.69595e-06
1.46336e-06
1.20189e-06
1.16449e-06
1.02666e-06
1.20327e-06
1.21696e-06
1.48795e-06
1.58324e-06
1.85913e-06
1.98225e-06
2.23451e-06
2.36065e-06
2.58171e-06
2.70005e-06
2.88847e-06
2.99394e-06
3.15035e-06
3.24122e-06
3.36746e-06
3.44335e-06
3.54157e-06
3.60276e-06
3.67552e-06
3.72277e-06
3.77286e-06
3.80712e-06
3.83742e-06
3.85972e-06
3.87307e-06
3.8845e-06
3.88357e-06
3.88519e-06
3.87246e-06
3.8653e-06
3.84298e-06
3.82804e-06
3.79804e-06
3.77625e-06
3.74021e-06
3.71247e-06
3.67175e-06
3.63887e-06
3.59459e-06
3.55735e-06
3.51043e-06
3.46953e-06
3.4207e-06
3.3768e-06
3.32665e-06
3.28036e-06
3.22935e-06
3.18123e-06
3.12974e-06
3.08028e-06
3.02863e-06
2.97827e-06
2.92671e-06
2.87587e-06
2.82459e-06
2.77362e-06
2.72281e-06
2.67201e-06
2.62183e-06
2.57146e-06
2.52204e-06
2.47233e-06
2.42377e-06
2.37491e-06
2.32733e-06
2.27946e-06
2.23294e-06
2.18621e-06
2.14082e-06
2.09531e-06
2.05113e-06
2.00691e-06
1.96398e-06
1.92113e-06
1.87949e-06
1.83803e-06
1.79772e-06
1.75767e-06
1.71871e-06
1.68008e-06
1.64248e-06
1.60528e-06
1.56904e-06
1.53326e-06
1.49838e-06
1.46399e-06
1.43045e-06
1.39744e-06
1.36523e-06
1.33356e-06
1.30265e-06
1.2723e-06
1.24267e-06
1.2136e-06
1.18521e-06
1.15738e-06
1.1302e-06
1.10358e-06
1.07757e-06
1.05211e-06
1.02723e-06
1.00289e-06
9.79109e-07
9.55848e-07
9.33123e-07
9.109e-07
8.89189e-07
8.67963e-07
8.47227e-07
8.26958e-07
8.07156e-07
7.87804e-07
7.68898e-07
7.50424e-07
7.32376e-07
7.14742e-07
6.97516e-07
6.80685e-07
6.64244e-07
6.48182e-07
6.32492e-07
6.17164e-07
6.02191e-07
5.87565e-07
5.73278e-07
5.59323e-07
5.45691e-07
5.32377e-07
5.19373e-07
5.06671e-07
4.94266e-07
4.8215e-07
4.70319e-07
4.58764e-07
4.47482e-07
4.36465e-07
4.25708e-07
4.15206e-07
4.04954e-07
3.94946e-07
3.85178e-07
3.75646e-07
3.66344e-07
3.57269e-07
3.48417e-07
3.39783e-07
3.31365e-07
3.23157e-07
3.15158e-07
3.07365e-07
2.99773e-07
2.92382e-07
2.85187e-07
2.78188e-07
2.71381e-07
2.64765e-07
2.58338e-07
2.52098e-07
2.46045e-07
2.40177e-07
2.34492e-07
2.28991e-07
2.23671e-07
2.18533e-07
2.13575e-07
2.08797e-07
2.04198e-07
1.99777e-07
1.95535e-07
1.91469e-07
1.87579e-07
1.83864e-07
1.80322e-07
1.76952e-07
1.73751e-07
1.70717e-07
1.67848e-07
1.65139e-07
1.62588e-07
1.60191e-07
1.57941e-07
1.55835e-07
1.53866e-07
1.52028e-07
1.50314e-07
1.48717e-07
1.47229e-07
1.45841e-07
1.44546e-07
1.43334e-07
1.42196e-07
1.41122e-07
1.40103e-07
1.39129e-07
1.38191e-07
1.37279e-07
1.36382e-07
1.35491e-07
1.34598e-07
1.33692e-07
1.32764e-07
1.31806e-07
1.3081e-07
1.29766e-07
1.28668e-07
1.27508e-07
1.26278e-07
1.24972e-07
1.23585e-07
1.22109e-07
1.2054e-07
1.18872e-07
1.17101e-07
1.15224e-07
1.13235e-07
1.11132e-07
1.08913e-07
1.06574e-07
1.04114e-07
1.01531e-07
9.88242e-08
9.59931e-08
9.30374e-08
8.99571e-08
8.6753e-08
8.34259e-08
7.99774e-08
7.64093e-08
7.27236e-08
6.89231e-08
6.50108e-08
6.09899e-08
5.68644e-08
5.26384e-08
4.83165e-08
4.3904e-08
3.94065e-08
3.48308e-08
3.01846e-08
2.54781e-08
2.07261e-08
1.59543e-08
1.12233e-08
6.74775e-09
3.83401e-09
5.88731e-09
1.03124e-08
1.51794e-08
2.018e-08
2.52364e-08
3.03171e-08
3.54043e-08
4.04853e-08
4.555e-08
5.05891e-08
5.55942e-08
6.05574e-08
6.54709e-08
7.03272e-08
7.51188e-08
7.98387e-08
8.44798e-08
8.90352e-08
9.34983e-08
9.78623e-08
1.02121e-07
1.06268e-07
1.10298e-07
1.14204e-07
1.17981e-07
1.21624e-07
1.25127e-07
1.28485e-07
1.31694e-07
1.34749e-07
1.37645e-07
1.40379e-07
1.42947e-07
1.45344e-07
1.47569e-07
1.49616e-07
1.51484e-07
1.5317e-07
1.54671e-07
1.55985e-07
1.5711e-07
1.58043e-07
1.58785e-07
1.59332e-07
1.59685e-07
1.59841e-07
1.59801e-07
1.59563e-07
1.59129e-07
1.58496e-07
1.57667e-07
1.56641e-07
1.5542e-07
1.54003e-07
1.52392e-07
1.50589e-07
1.48595e-07
1.46413e-07
1.44044e-07
1.41491e-07
1.38758e-07
1.35847e-07
1.32763e-07
1.29508e-07
1.26089e-07
1.22509e-07
1.18774e-07
1.1489e-07
1.10864e-07
1.06703e-07
1.02416e-07
9.80113e-08
9.35005e-08
8.88954e-08
8.42101e-08
7.94608e-08
7.46674e-08
6.98535e-08
6.50482e-08
6.02884e-08
5.56211e-08
5.11073e-08
4.68271e-08
4.28856e-08
3.94184e-08
3.65914e-08
3.45889e-08
3.35802e-08
3.36693e-08
3.48553e-08
3.7034e-08
4.00382e-08
4.36879e-08
4.78209e-08
5.23051e-08
5.70372e-08
6.19376e-08
6.69452e-08
7.20119e-08
7.70993e-08
8.21764e-08
8.7217e-08
9.21991e-08
9.71035e-08
1.01913e-07
1.06613e-07
1.1119e-07
1.15632e-07
1.19927e-07
1.24065e-07
1.28037e-07
1.31835e-07
1.3545e-07
1.38876e-07
1.42106e-07
1.45136e-07
1.4796e-07