/*--------------------------------*- C++ -*----------------------------------*\
| =========                 |                                                 |
| \\      /  F ield         | OpenFOAM: The Open Source CFD Toolbox           |
|  \\    /   O peration     | Version:  v2012                                 |
|   \\  /    A nd           | Website:  www.openfoam.com                      |
|    \\/     M anipulation  |                                                 |
\*---------------------------------------------------------------------------*/
FoamFile
{
    version     2.0;
    format      ascii;
    class       volScalarField;
    location    "100";
    object      he_filtered;
}
// * * * * * * * * * * * * * * * * * * * * * * * * * * * * * * * * * * * * * //

dimensions      [0 2 -2 0 0 0 0];


internalField   nonuniform List<scalar> 
65536
(
1741.03
1740.65
1740.33
1739.77
1739.07
1738.21
1737.2
1736.03
1734.71
1733.25
1731.65
1729.92
1728.06
1726.1
1724.02
1721.85
1719.59
1717.25
1714.84
1712.36
1709.84
1707.26
1704.66
1702.03
1699.38
1696.72
1694.06
1691.41
1688.77
1686.15
1683.56
1681
1678.48
1676
1673.57
1671.2
1668.88
1666.62
1664.43
1662.3
1660.24
1658.24
1656.32
1654.47
1652.69
1650.99
1649.35
1647.79
1646.3
1644.88
1643.53
1642.24
1641.03
1639.87
1638.79
1637.76
1636.79
1635.88
1635.03
1634.22
1633.47
1632.77
1632.12
1631.5
1630.93
1630.4
1629.91
1629.45
1629.03
1628.64
1628.27
1627.94
1627.63
1627.34
1627.08
1626.83
1626.61
1626.4
1626.21
1626.04
1625.88
1625.73
1625.59
1625.47
1625.35
1625.24
1625.15
1625.05
1624.97
1624.89
1624.82
1624.75
1624.69
1624.63
1624.58
1624.53
1624.48
1624.43
1624.39
1624.35
1624.31
1624.27
1624.24
1624.2
1624.17
1624.14
1624.11
1624.08
1624.05
1624.02
1624
1623.97
1623.94
1623.92
1623.89
1623.87
1623.84
1623.82
1623.8
1623.77
1623.75
1623.73
1623.7
1623.68
1623.66
1623.64
1623.62
1623.59
1623.57
1623.55
1623.53
1623.51
1623.49
1623.47
1623.45
1623.42
1623.4
1623.38
1623.36
1623.34
1623.32
1623.3
1623.28
1623.26
1623.24
1623.22
1623.2
1623.18
1623.16
1623.14
1623.12
1623.1
1623.08
1623.06
1623.04
1623.02
1623
1622.98
1622.96
1622.94
1622.92
1622.9
1622.88
1622.86
1622.84
1622.82
1622.8
1622.78
1622.75
1622.73
1622.71
1622.69
1622.67
1622.65
1622.63
1622.61
1622.59
1622.57
1622.55
1622.53
1622.5
1622.48
1622.46
1622.44
1622.42
1622.4
1622.37
1622.35
1622.33
1622.31
1622.29
1622.26
1622.24
1622.22
1622.19
1622.17
1622.15
1622.12
1622.1
1622.07
1622.05
1622.02
1621.99
1621.97
1621.94
1621.91
1621.89
1621.86
1621.83
1621.8
1621.77
1621.74
1621.7
1621.67
1621.64
1621.6
1621.57
1621.53
1621.5
1621.46
1621.42
1621.38
1621.34
1621.3
1621.25
1621.21
1621.16
1621.12
1621.07
1621.02
1620.97
1620.92
1620.86
1620.81
1620.75
1620.69
1620.63
1620.57
1620.51
1620.45
1620.38
1620.31
1620.24
1620.17
1620.1
1620.02
1619.95
1619.87
1619.79
1619.71
1619.62
1619.54
1619.45
1619.36
1619.27
1619.18
1619.08
1618.99
1618.89
1618.79
1618.69
1618.58
1618.48
1618.37
1618.26
1618.15
1618.04
1617.93
1617.81
1617.7
1617.58
1617.46
1617.34
1617.22
1617.09
1616.97
1616.84
1616.72
1616.59
1616.46
1616.33
1616.2
1616.07
1615.93
1615.8
1615.66
1615.53
1615.39
1615.26
1615.12
1614.99
1614.85
1614.71
1614.58
1614.44
1614.3
1614.16
1614.03
1613.89
1613.75
1613.62
1613.48
1613.35
1613.21
1613.08
1612.94
1612.81
1612.68
1612.55
1612.42
1612.29
1612.16
1612.03
1611.91
1611.78
1611.66
1611.53
1611.41
1611.29
1611.17
1611.06
1610.94
1610.83
1610.72
1610.61
1610.5
1610.39
1610.28
1610.18
1610.08
1609.98
1609.88
1609.78
1609.68
1609.59
1609.5
1609.41
1609.32
1609.23
1609.15
1609.06
1608.98
1608.9
1608.82
1608.75
1608.67
1608.6
1608.53
1608.45
1608.39
1608.32
1608.25
1608.18
1608.12
1608.06
1607.99
1607.93
1607.87
1607.81
1607.75
1607.69
1607.64
1607.58
1607.52
1607.46
1607.41
1607.35
1607.29
1607.24
1607.18
1607.12
1607.06
1607
1606.94
1606.88
1606.82
1606.76
1606.69
1606.62
1606.56
1606.49
1606.42
1606.34
1606.27
1606.19
1606.11
1606.03
1605.94
1605.86
1605.77
1605.67
1605.57
1605.47
1605.37
1605.26
1605.15
1605.04
1604.92
1604.8
1604.67
1604.54
1604.4
1604.26
1604.12
1603.97
1603.81
1603.65
1603.49
1603.32
1603.14
1602.96
1602.77
1602.58
1602.39
1602.18
1601.98
1601.76
1601.54
1601.32
1601.09
1600.85
1600.61
1600.36
1600.11
1599.85
1599.58
1599.31
1599.04
1598.76
1598.47
1598.17
1597.88
1597.57
1597.26
1596.95
1596.63
1596.3
1595.98
1595.64
1595.3
1594.96
1594.61
1594.26
1593.91
1593.55
1593.18
1592.82
1592.45
1592.08
1591.7
1591.32
1590.94
1590.56
1590.18
1589.79
1589.4
1589.02
1588.63
1588.24
1587.85
1587.46
1587.07
1586.68
1586.29
1585.91
1585.52
1585.14
1584.76
1584.38
1584.01
1583.63
1583.26
1582.9
1582.54
1582.18
1581.83
1581.48
1581.14
1580.81
1580.48
1580.15
1579.84
1579.53
1579.22
1578.93
1578.64
1578.36
1578.09
1577.83
1577.57
1577.33
1577.09
1576.87
1576.65
1576.44
1576.25
1576.06
1575.89
1575.72
1575.57
1575.43
1575.3
1575.18
1575.07
1574.98
1574.89
1574.82
1574.76
1574.71
1574.68
1574.65
1574.64
1250.05
1249.79
1249.43
1248.9
1248.23
1247.38
1246.39
1245.23
1243.92
1242.47
1240.88
1239.16
1237.32
1235.36
1233.3
1231.13
1228.88
1226.54
1224.14
1221.67
1219.15
1216.59
1213.99
1211.36
1208.72
1206.06
1203.41
1200.76
1198.13
1195.51
1192.92
1190.37
1187.85
1185.38
1182.96
1180.58
1178.27
1176.01
1173.82
1171.69
1169.63
1167.64
1165.72
1163.87
1162.1
1160.39
1158.76
1157.19
1155.7
1154.28
1152.93
1151.64
1150.43
1149.27
1148.18
1147.15
1146.18
1145.27
1144.41
1143.61
1142.85
1142.15
1141.49
1140.87
1140.29
1139.76
1139.26
1138.8
1138.37
1137.97
1137.6
1137.26
1136.95
1136.65
1136.38
1136.13
1135.9
1135.69
1135.5
1135.32
1135.15
1134.99
1134.85
1134.72
1134.6
1134.49
1134.38
1134.29
1134.2
1134.11
1134.04
1133.96
1133.9
1133.83
1133.77
1133.72
1133.66
1133.61
1133.57
1133.52
1133.48
1133.44
1133.4
1133.36
1133.32
1133.29
1133.25
1133.22
1133.19
1133.16
1133.13
1133.1
1133.07
1133.04
1133.01
1132.98
1132.95
1132.93
1132.9
1132.87
1132.85
1132.82
1132.8
1132.77
1132.75
1132.72
1132.7
1132.68
1132.65
1132.63
1132.61
1132.58
1132.56
1132.54
1132.51
1132.49
1132.47
1132.45
1132.42
1132.4
1132.38
1132.36
1132.34
1132.31
1132.29
1132.27
1132.25
1132.23
1132.21
1132.19
1132.16
1132.14
1132.12
1132.1
1132.08
1132.06
1132.04
1132.02
1131.99
1131.97
1131.95
1131.93
1131.91
1131.89
1131.87
1131.85
1131.82
1131.8
1131.78
1131.76
1131.74
1131.72
1131.7
1131.68
1131.65
1131.63
1131.61
1131.59
1131.57
1131.55
1131.52
1131.5
1131.48
1131.46
1131.44
1131.41
1131.39
1131.37
1131.35
1131.32
1131.3
1131.28
1131.25
1131.23
1131.21
1131.18
1131.16
1131.13
1131.11
1131.08
1131.06
1131.03
1131
1130.98
1130.95
1130.92
1130.89
1130.87
1130.84
1130.81
1130.77
1130.74
1130.71
1130.68
1130.64
1130.61
1130.58
1130.54
1130.5
1130.46
1130.42
1130.38
1130.34
1130.3
1130.26
1130.21
1130.17
1130.12
1130.07
1130.02
1129.97
1129.92
1129.87
1129.81
1129.75
1129.7
1129.64
1129.57
1129.51
1129.45
1129.38
1129.31
1129.24
1129.17
1129.1
1129.02
1128.95
1128.87
1128.79
1128.71
1128.62
1128.54
1128.45
1128.36
1128.27
1128.18
1128.08
1127.99
1127.89
1127.79
1127.69
1127.58
1127.48
1127.37
1127.26
1127.15
1127.04
1126.93
1126.81
1126.7
1126.58
1126.46
1126.34
1126.22
1126.09
1125.97
1125.84
1125.72
1125.59
1125.46
1125.33
1125.2
1125.07
1124.93
1124.8
1124.67
1124.53
1124.4
1124.26
1124.12
1123.99
1123.85
1123.71
1123.58
1123.44
1123.3
1123.17
1123.03
1122.89
1122.76
1122.62
1122.48
1122.35
1122.21
1122.08
1121.95
1121.81
1121.68
1121.55
1121.42
1121.29
1121.16
1121.03
1120.91
1120.78
1120.66
1120.54
1120.42
1120.3
1120.18
1120.06
1119.94
1119.83
1119.72
1119.61
1119.5
1119.39
1119.29
1119.18
1119.08
1118.98
1118.88
1118.78
1118.69
1118.59
1118.5
1118.41
1118.32
1118.24
1118.15
1118.07
1117.98
1117.9
1117.83
1117.75
1117.67
1117.6
1117.53
1117.46
1117.39
1117.32
1117.25
1117.19
1117.12
1117.06
1117
1116.93
1116.87
1116.81
1116.75
1116.7
1116.64
1116.58
1116.52
1116.46
1116.41
1116.35
1116.29
1116.24
1116.18
1116.12
1116.06
1116
1115.94
1115.88
1115.82
1115.76
1115.69
1115.63
1115.56
1115.49
1115.42
1115.34
1115.27
1115.19
1115.11
1115.03
1114.94
1114.86
1114.77
1114.67
1114.58
1114.47
1114.37
1114.26
1114.15
1114.04
1113.92
1113.8
1113.67
1113.54
1113.4
1113.26
1113.12
1112.97
1112.81
1112.65
1112.49
1112.32
1112.14
1111.96
1111.78
1111.58
1111.39
1111.18
1110.98
1110.76
1110.54
1110.32
1110.09
1109.85
1109.61
1109.36
1109.11
1108.85
1108.59
1108.31
1108.04
1107.76
1107.47
1107.18
1106.88
1106.57
1106.26
1105.95
1105.63
1105.31
1104.98
1104.64
1104.3
1103.96
1103.61
1103.26
1102.91
1102.55
1102.19
1101.82
1101.45
1101.08
1100.7
1100.32
1099.94
1099.56
1099.18
1098.79
1098.41
1098.02
1097.63
1097.24
1096.85
1096.46
1096.07
1095.68
1095.3
1094.91
1094.52
1094.14
1093.76
1093.38
1093.01
1092.63
1092.27
1091.9
1091.54
1091.18
1090.83
1090.48
1090.14
1089.81
1089.48
1089.15
1088.84
1088.52
1088.22
1087.93
1087.64
1087.36
1087.09
1086.82
1086.57
1086.33
1086.09
1085.86
1085.65
1085.44
1085.25
1085.06
1084.89
1084.72
1084.57
1084.43
1084.3
1084.18
1084.07
1083.98
1083.89
1083.82
1083.76
1083.71
1083.67
1083.65
1083.64
759.79
759.711
759.356
758.845
758.161
757.308
756.296
755.126
753.808
752.343
750.742
749.009
747.154
745.182
743.104
740.927
738.662
736.315
733.898
731.419
728.887
726.311
723.701
721.065
718.412
715.749
713.087
710.43
707.788
705.167
702.573
700.013
697.493
695.016
692.589
690.215
687.898
685.642
683.449
681.322
679.263
677.273
675.355
673.508
671.734
670.032
668.402
666.845
665.359
663.944
662.598
661.32
660.109
658.963
657.879
656.857
655.895
654.989
654.139
653.341
652.594
651.895
651.242
650.633
650.066
649.538
649.047
648.592
648.169
647.777
647.415
647.08
646.77
646.484
646.219
645.976
645.751
645.544
645.353
645.177
645.015
644.866
644.728
644.601
644.483
644.375
644.275
644.182
644.096
644.016
643.941
643.872
643.807
643.746
643.689
643.636
643.585
643.538
643.492
643.449
643.408
643.369
643.332
643.296
643.261
643.227
643.195
643.163
643.132
643.103
643.073
643.045
643.017
642.99
642.963
642.936
642.91
642.885
642.859
642.834
642.81
642.785
642.761
642.737
642.714
642.69
642.667
642.644
642.621
642.599
642.576
642.554
642.531
642.509
642.487
642.465
642.444
642.422
642.401
642.379
642.358
642.336
642.315
642.294
642.273
642.252
642.231
642.21
642.189
642.168
642.147
642.126
642.105
642.084
642.063
642.043
642.022
642.001
641.98
641.959
641.938
641.917
641.896
641.876
641.855
641.834
641.813
641.792
641.771
641.75
641.728
641.707
641.686
641.665
641.644
641.622
641.601
641.579
641.558
641.536
641.515
641.493
641.471
641.449
641.427
641.405
641.383
641.36
641.338
641.315
641.292
641.269
641.246
641.222
641.198
641.174
641.15
641.125
641.1
641.075
641.049
641.023
640.997
640.97
640.943
640.915
640.887
640.858
640.828
640.798
640.767
640.736
640.704
640.671
640.637
640.603
640.568
640.531
640.494
640.456
640.417
640.377
640.336
640.294
640.251
640.206
640.16
640.113
640.065
640.015
639.965
639.912
639.858
639.803
639.747
639.688
639.629
639.567
639.504
639.44
639.374
639.306
639.236
639.165
639.092
639.018
638.941
638.863
638.783
638.701
638.617
638.532
638.445
638.356
638.265
638.172
638.078
637.981
637.883
637.784
637.682
637.579
637.474
637.367
637.259
637.149
637.037
636.924
636.809
636.693
636.576
636.456
636.336
636.214
636.091
635.967
635.841
635.714
635.587
635.458
635.328
635.197
635.065
634.933
634.8
634.666
634.532
634.397
634.261
634.125
633.989
633.852
633.716
633.579
633.442
633.305
633.168
633.031
632.894
632.758
632.622
632.486
632.351
632.216
632.082
631.948
631.816
631.684
631.552
631.422
631.293
631.165
631.037
630.911
630.787
630.663
630.54
630.419
630.3
630.181
630.064
629.949
629.835
629.723
629.612
629.503
629.396
629.29
629.186
629.083
628.982
628.883
628.786
628.691
628.597
628.505
628.414
628.326
628.239
628.154
628.07
627.988
627.908
627.83
627.753
627.677
627.603
627.531
627.46
627.39
627.322
627.255
627.189
627.124
627.061
626.998
626.937
626.876
626.816
626.756
626.698
626.639
626.581
626.524
626.467
626.409
626.352
626.295
626.238
626.18
626.122
626.063
626.004
625.943
625.882
625.82
625.757
625.692
625.626
625.558
625.489
625.418
625.344
625.269
625.192
625.112
625.029
624.944
624.856
624.766
624.672
624.575
624.474
624.371
624.263
624.152
624.037
623.918
623.795
623.668
623.537
623.401
623.26
623.115
622.965
622.81
622.651
622.486
622.316
622.141
621.961
621.775
621.584
621.387
621.185
620.977
620.764
620.545
620.32
620.09
619.853
619.611
619.363
619.11
618.851
618.586
618.315
618.039
617.757
617.469
617.176
616.878
616.574
616.265
615.951
615.631
615.307
614.978
614.644
614.305
613.962
613.615
613.264
612.908
612.549
612.186
611.82
611.451
611.078
610.703
610.325
609.945
609.563
609.179
608.793
608.406
608.018
607.629
607.24
606.85
606.461
606.071
605.683
605.295
604.908
604.523
604.14
603.759
603.381
603.005
602.633
602.264
601.898
601.537
601.18
600.828
600.481
600.139
599.803
599.473
599.149
598.832
598.522
598.219
597.923
597.635
597.355
597.084
596.821
596.567
596.322
596.087
595.861
595.644
595.438
595.242
595.057
594.882
594.718
594.565
594.423
594.293
594.174
594.066
593.97
593.886
593.814
593.753
593.705
593.669
593.645
593.632
269.163
268.945
268.589
268.066
267.375
266.52
265.503
264.329
263.004
261.533
259.923
258.181
256.315
254.332
252.242
250.052
247.773
245.413
242.982
240.488
237.942
235.351
232.726
230.076
227.408
224.731
222.054
219.384
216.729
214.095
211.489
208.917
206.384
203.897
201.46
199.076
196.75
194.486
192.285
190.151
188.086
186.091
184.168
182.317
180.538
178.834
177.202
175.642
174.155
172.739
171.393
170.115
168.904
167.759
166.677
165.657
164.697
163.794
162.946
162.151
161.407
160.712
160.063
159.458
158.894
158.37
157.883
157.432
157.013
156.626
156.267
155.936
155.63
155.348
155.088
154.848
154.627
154.424
154.237
154.064
153.906
153.76
153.625
153.502
153.387
153.282
153.185
153.095
153.012
152.934
152.863
152.796
152.733
152.675
152.621
152.569
152.521
152.476
152.432
152.391
152.352
152.315
152.279
152.245
152.212
152.18
152.149
152.119
152.089
152.061
152.033
152.006
151.979
151.953
151.927
151.902
151.877
151.853
151.828
151.804
151.781
151.757
151.734
151.711
151.688
151.665
151.643
151.621
151.599
151.577
151.555
151.533
151.511
151.49
151.469
151.447
151.426
151.405
151.384
151.363
151.342
151.321
151.3
151.279
151.259
151.238
151.217
151.197
151.176
151.155
151.135
151.114
151.094
151.073
151.052
151.032
151.011
150.991
150.97
150.949
150.929
150.908
150.887
150.866
150.846
150.825
150.804
150.783
150.762
150.741
150.72
150.699
150.678
150.657
150.636
150.615
150.593
150.572
150.55
150.529
150.507
150.486
150.464
150.442
150.42
150.398
150.375
150.353
150.33
150.307
150.284
150.261
150.238
150.214
150.191
150.166
150.142
150.117
150.092
150.067
150.041
150.015
149.989
149.962
149.934
149.907
149.878
149.849
149.82
149.789
149.759
149.727
149.695
149.662
149.628
149.594
149.558
149.522
149.485
149.447
149.408
149.368
149.327
149.284
149.241
149.196
149.15
149.103
149.055
149.006
148.955
148.902
148.849
148.793
148.737
148.678
148.619
148.558
148.495
148.43
148.364
148.296
148.227
148.156
148.083
148.008
147.932
147.854
147.774
147.692
147.608
147.523
147.436
147.347
147.257
147.164
147.07
146.974
146.876
146.776
146.675
146.572
146.467
146.361
146.253
146.143
146.032
145.919
145.804
145.688
145.571
145.452
145.332
145.21
145.087
144.963
144.838
144.712
144.584
144.456
144.326
144.196
144.064
143.932
143.799
143.666
143.531
143.397
143.261
143.126
142.99
142.853
142.717
142.58
142.444
142.307
142.17
142.033
141.897
141.761
141.625
141.489
141.354
141.22
141.086
140.953
140.82
140.688
140.557
140.427
140.298
140.17
140.043
139.917
139.792
139.669
139.546
139.425
139.306
139.187
139.071
138.955
138.841
138.729
138.618
138.509
138.402
138.296
138.192
138.089
137.989
137.89
137.792
137.697
137.603
137.511
137.42
137.332
137.245
137.16
137.076
136.994
136.914
136.835
136.758
136.683
136.609
136.536
136.465
136.395
136.327
136.259
136.193
136.129
136.065
136.002
135.94
135.879
135.819
135.76
135.701
135.642
135.584
135.527
135.469
135.412
135.355
135.297
135.24
135.182
135.123
135.065
135.005
134.945
134.883
134.821
134.758
134.693
134.627
134.559
134.489
134.418
134.345
134.269
134.192
134.112
134.029
133.944
133.856
133.765
133.672
133.574
133.474
133.37
133.263
133.152
133.037
132.918
132.795
132.668
132.536
132.4
132.26
132.115
131.965
131.81
131.65
131.486
131.316
131.141
130.961
130.775
130.584
130.387
130.185
129.977
129.764
129.545
129.32
129.09
128.854
128.612
128.364
128.111
127.852
127.587
127.316
127.04
126.758
126.47
126.178
125.879
125.575
125.266
124.952
124.633
124.308
123.979
123.645
123.307
122.964
122.617
122.265
121.91
121.551
121.188
120.822
120.452
120.08
119.704
119.327
118.946
118.564
118.18
117.794
117.407
117.019
116.63
116.24
115.85
115.461
115.071
114.682
114.294
113.908
113.523
113.139
112.758
112.38
112.004
111.631
111.262
110.896
110.535
110.178
109.825
109.478
109.136
108.8
108.469
108.145
107.828
107.518
107.214
106.918
106.63
106.35
106.079
105.815
105.561
105.316
105.08
104.854
104.638
104.432
104.236
104.05
103.875
103.711
103.558
103.416
103.285
103.166
103.058
102.962
102.878
102.806
102.745
102.697
102.661
102.637
102.624
-220.865
-221.001
-221.354
-221.869
-222.561
-223.422
-224.445
-225.629
-226.964
-228.447
-230.069
-231.825
-233.705
-235.702
-237.807
-240.012
-242.306
-244.682
-247.129
-249.638
-252.2
-254.805
-257.444
-260.109
-262.79
-265.48
-268.169
-270.851
-273.517
-276.161
-278.776
-281.356
-283.895
-286.389
-288.832
-291.22
-293.548
-295.815
-298.017
-300.152
-302.216
-304.21
-306.132
-307.98
-309.754
-311.455
-313.082
-314.635
-316.116
-317.526
-318.865
-320.135
-321.338
-322.475
-323.548
-324.559
-325.511
-326.405
-327.244
-328.03
-328.765
-329.451
-330.092
-330.688
-331.243
-331.759
-332.238
-332.681
-333.092
-333.472
-333.824
-334.148
-334.447
-334.723
-334.977
-335.211
-335.426
-335.625
-335.807
-335.974
-336.129
-336.271
-336.401
-336.521
-336.632
-336.734
-336.829
-336.916
-336.997
-337.072
-337.141
-337.206
-337.266
-337.323
-337.376
-337.426
-337.473
-337.517
-337.559
-337.599
-337.638
-337.674
-337.709
-337.743
-337.776
-337.807
-337.838
-337.867
-337.896
-337.924
-337.952
-337.979
-338.006
-338.032
-338.057
-338.083
-338.107
-338.132
-338.156
-338.18
-338.204
-338.228
-338.251
-338.274
-338.297
-338.32
-338.343
-338.365
-338.387
-338.41
-338.432
-338.454
-338.475
-338.497
-338.519
-338.54
-338.562
-338.583
-338.604
-338.626
-338.647
-338.668
-338.689
-338.71
-338.731
-338.752
-338.773
-338.794
-338.815
-338.835
-338.856
-338.877
-338.898
-338.919
-338.94
-338.96
-338.981
-339.002
-339.023
-339.044
-339.065
-339.086
-339.107
-339.128
-339.149
-339.17
-339.191
-339.212
-339.233
-339.254
-339.276
-339.297
-339.318
-339.34
-339.361
-339.383
-339.404
-339.426
-339.448
-339.469
-339.491
-339.513
-339.535
-339.557
-339.58
-339.602
-339.625
-339.647
-339.67
-339.693
-339.717
-339.74
-339.764
-339.788
-339.812
-339.836
-339.861
-339.886
-339.911
-339.936
-339.962
-339.989
-340.016
-340.043
-340.07
-340.099
-340.127
-340.156
-340.186
-340.217
-340.248
-340.279
-340.312
-340.345
-340.379
-340.414
-340.449
-340.486
-340.523
-340.561
-340.601
-340.641
-340.682
-340.725
-340.768
-340.813
-340.859
-340.906
-340.955
-341.004
-341.055
-341.108
-341.162
-341.217
-341.274
-341.332
-341.392
-341.453
-341.516
-341.58
-341.647
-341.714
-341.784
-341.855
-341.928
-342.002
-342.079
-342.157
-342.236
-342.318
-342.401
-342.487
-342.574
-342.662
-342.753
-342.845
-342.939
-343.035
-343.133
-343.232
-343.333
-343.436
-343.54
-343.647
-343.754
-343.864
-343.975
-344.087
-344.202
-344.317
-344.434
-344.553
-344.673
-344.794
-344.916
-345.04
-345.165
-345.291
-345.418
-345.547
-345.676
-345.806
-345.937
-346.069
-346.201
-346.334
-346.468
-346.603
-346.737
-346.873
-347.008
-347.144
-347.281
-347.417
-347.553
-347.69
-347.826
-347.963
-348.099
-348.235
-348.37
-348.505
-348.64
-348.774
-348.908
-349.041
-349.173
-349.305
-349.436
-349.566
-349.695
-349.823
-349.95
-350.075
-350.2
-350.323
-350.446
-350.567
-350.686
-350.804
-350.921
-351.036
-351.15
-351.262
-351.373
-351.482
-351.59
-351.695
-351.799
-351.902
-352.003
-352.102
-352.199
-352.295
-352.389
-352.481
-352.571
-352.66
-352.747
-352.832
-352.916
-352.998
-353.079
-353.157
-353.235
-353.31
-353.384
-353.457
-353.528
-353.598
-353.667
-353.734
-353.801
-353.866
-353.93
-353.992
-354.055
-354.116
-354.176
-354.236
-354.295
-354.353
-354.412
-354.47
-354.527
-354.585
-354.642
-354.7
-354.757
-354.816
-354.874
-354.933
-354.993
-355.053
-355.115
-355.177
-355.241
-355.306
-355.372
-355.44
-355.51
-355.581
-355.655
-355.73
-355.808
-355.888
-355.971
-356.056
-356.144
-356.235
-356.329
-356.426
-356.526
-356.63
-356.738
-356.849
-356.964
-357.083
-357.206
-357.333
-357.465
-357.6
-357.741
-357.886
-358.036
-358.191
-358.35
-358.515
-358.685
-358.86
-359.04
-359.225
-359.416
-359.613
-359.815
-360.023
-360.236
-360.455
-360.679
-360.91
-361.146
-361.388
-361.635
-361.888
-362.148
-362.412
-362.683
-362.959
-363.241
-363.528
-363.821
-364.119
-364.423
-364.732
-365.046
-365.365
-365.69
-366.019
-366.353
-366.691
-367.034
-367.381
-367.733
-368.088
-368.447
-368.81
-369.177
-369.546
-369.919
-370.294
-370.672
-371.052
-371.435
-371.819
-372.205
-372.592
-372.981
-373.37
-373.76
-374.15
-374.539
-374.929
-375.318
-375.706
-376.093
-376.479
-376.862
-377.243
-377.622
-377.998
-378.372
-378.741
-379.107
-379.469
-379.826
-380.179
-380.526
-380.868
-381.205
-381.536
-381.86
-382.178
-382.488
-382.792
-383.088
-383.377
-383.657
-383.929
-384.192
-384.447
-384.692
-384.928
-385.154
-385.371
-385.577
-385.774
-385.959
-386.135
-386.299
-386.452
-386.594
-386.725
-386.844
-386.952
-387.048
-387.133
-387.205
-387.265
-387.314
-387.35
-387.374
-387.387
-711.431
-711.627
-711.983
-712.517
-713.221
-714.094
-715.13
-716.328
-717.678
-719.178
-720.818
-722.593
-724.493
-726.512
-728.64
-730.868
-733.186
-735.586
-738.058
-740.592
-743.179
-745.81
-748.474
-751.164
-753.869
-756.583
-759.295
-761.999
-764.686
-767.351
-769.985
-772.584
-775.14
-777.649
-780.107
-782.508
-784.85
-787.127
-789.339
-791.482
-793.554
-795.554
-797.48
-799.332
-801.109
-802.811
-804.439
-805.992
-807.472
-808.879
-810.216
-811.482
-812.681
-813.813
-814.881
-815.886
-816.831
-817.719
-818.551
-819.329
-820.056
-820.735
-821.368
-821.956
-822.503
-823.011
-823.481
-823.917
-824.32
-824.692
-825.035
-825.352
-825.644
-825.912
-826.159
-826.386
-826.595
-826.786
-826.962
-827.124
-827.272
-827.408
-827.533
-827.648
-827.754
-827.851
-827.941
-828.023
-828.1
-828.17
-828.236
-828.297
-828.354
-828.407
-828.456
-828.503
-828.547
-828.588
-828.628
-828.665
-828.7
-828.735
-828.767
-828.799
-828.829
-828.859
-828.887
-828.915
-828.942
-828.968
-828.994
-829.02
-829.045
-829.069
-829.094
-829.118
-829.141
-829.165
-829.188
-829.211
-829.233
-829.256
-829.278
-829.3
-829.322
-829.344
-829.366
-829.388
-829.409
-829.431
-829.452
-829.473
-829.495
-829.516
-829.537
-829.558
-829.579
-829.599
-829.62
-829.641
-829.662
-829.682
-829.703
-829.724
-829.744
-829.765
-829.785
-829.806
-829.826
-829.847
-829.868
-829.888
-829.909
-829.929
-829.95
-829.971
-829.991
-830.012
-830.033
-830.053
-830.074
-830.095
-830.116
-830.137
-830.158
-830.179
-830.2
-830.221
-830.242
-830.263
-830.284
-830.305
-830.327
-830.348
-830.37
-830.391
-830.413
-830.434
-830.456
-830.478
-830.5
-830.522
-830.544
-830.566
-830.589
-830.611
-830.634
-830.657
-830.68
-830.703
-830.726
-830.75
-830.773
-830.797
-830.822
-830.846
-830.871
-830.896
-830.922
-830.947
-830.974
-831
-831.027
-831.054
-831.082
-831.111
-831.139
-831.169
-831.199
-831.229
-831.261
-831.293
-831.325
-831.359
-831.393
-831.428
-831.463
-831.5
-831.537
-831.576
-831.615
-831.656
-831.697
-831.74
-831.784
-831.828
-831.874
-831.922
-831.97
-832.02
-832.071
-832.124
-832.177
-832.233
-832.29
-832.348
-832.408
-832.469
-832.532
-832.596
-832.662
-832.73
-832.799
-832.87
-832.943
-833.017
-833.094
-833.171
-833.251
-833.333
-833.416
-833.501
-833.587
-833.676
-833.766
-833.858
-833.952
-834.048
-834.145
-834.244
-834.345
-834.447
-834.551
-834.657
-834.764
-834.874
-834.984
-835.096
-835.21
-835.325
-835.442
-835.56
-835.679
-835.8
-835.922
-836.046
-836.17
-836.296
-836.422
-836.55
-836.679
-836.808
-836.939
-837.07
-837.202
-837.335
-837.468
-837.602
-837.737
-837.872
-838.007
-838.142
-838.278
-838.414
-838.55
-838.686
-838.822
-838.958
-839.094
-839.229
-839.365
-839.499
-839.634
-839.768
-839.901
-840.034
-840.166
-840.297
-840.428
-840.557
-840.686
-840.814
-840.94
-841.066
-841.191
-841.314
-841.436
-841.557
-841.676
-841.794
-841.911
-842.026
-842.14
-842.252
-842.362
-842.471
-842.579
-842.685
-842.789
-842.891
-842.992
-843.091
-843.189
-843.284
-843.378
-843.471
-843.561
-843.65
-843.737
-843.823
-843.906
-843.989
-844.069
-844.148
-844.225
-844.301
-844.376
-844.449
-844.52
-844.59
-844.659
-844.727
-844.793
-844.858
-844.923
-844.986
-845.048
-845.109
-845.17
-845.23
-845.289
-845.348
-845.407
-845.465
-845.523
-845.58
-845.638
-845.696
-845.754
-845.812
-845.871
-845.93
-845.99
-846.051
-846.113
-846.175
-846.239
-846.304
-846.371
-846.439
-846.509
-846.581
-846.654
-846.73
-846.808
-846.888
-846.971
-847.056
-847.144
-847.235
-847.329
-847.427
-847.527
-847.631
-847.739
-847.85
-847.965
-848.084
-848.207
-848.334
-848.466
-848.601
-848.742
-848.887
-849.037
-849.191
-849.351
-849.516
-849.685
-849.86
-850.04
-850.226
-850.417
-850.613
-850.815
-851.023
-851.236
-851.454
-851.679
-851.909
-852.145
-852.387
-852.634
-852.887
-853.146
-853.411
-853.682
-853.958
-854.239
-854.526
-854.819
-855.117
-855.421
-855.73
-856.044
-856.363
-856.687
-857.017
-857.35
-857.689
-858.032
-858.379
-858.73
-859.086
-859.445
-859.808
-860.174
-860.544
-860.917
-861.292
-861.67
-862.051
-862.433
-862.818
-863.204
-863.591
-863.98
-864.369
-864.759
-865.149
-865.54
-865.93
-866.319
-866.707
-867.094
-867.48
-867.864
-868.246
-868.625
-869.001
-869.375
-869.745
-870.111
-870.473
-870.831
-871.184
-871.532
-871.874
-872.211
-872.542
-872.867
-873.185
-873.496
-873.8
-874.096
-874.385
-874.666
-874.938
-875.202
-875.456
-875.702
-875.938
-876.165
-876.382
-876.589
-876.785
-876.971
-877.147
-877.311
-877.465
-877.607
-877.738
-877.857
-877.965
-878.061
-878.146
-878.218
-878.279
-878.327
-878.364
-878.388
-878.4
-1201.28
-1201.45
-1201.81
-1202.34
-1203.05
-1203.93
-1204.97
-1206.19
-1207.55
-1209.07
-1210.73
-1212.53
-1214.45
-1216.49
-1218.64
-1220.9
-1223.24
-1225.67
-1228.16
-1230.72
-1233.34
-1235.99
-1238.68
-1241.4
-1244.12
-1246.86
-1249.59
-1252.32
-1255.03
-1257.71
-1260.36
-1262.97
-1265.54
-1268.07
-1270.53
-1272.94
-1275.29
-1277.58
-1279.79
-1281.94
-1284.01
-1286.01
-1287.94
-1289.79
-1291.56
-1293.26
-1294.88
-1296.43
-1297.9
-1299.3
-1300.62
-1301.88
-1303.07
-1304.19
-1305.25
-1306.24
-1307.17
-1308.05
-1308.86
-1309.63
-1310.34
-1311.01
-1311.63
-1312.21
-1312.74
-1313.23
-1313.69
-1314.12
-1314.51
-1314.87
-1315.2
-1315.51
-1315.79
-1316.05
-1316.29
-1316.5
-1316.7
-1316.89
-1317.06
-1317.21
-1317.35
-1317.48
-1317.6
-1317.71
-1317.81
-1317.9
-1317.98
-1318.06
-1318.13
-1318.2
-1318.26
-1318.32
-1318.37
-1318.42
-1318.47
-1318.52
-1318.56
-1318.6
-1318.63
-1318.67
-1318.7
-1318.73
-1318.77
-1318.8
-1318.83
-1318.85
-1318.88
-1318.91
-1318.93
-1318.96
-1318.99
-1319.01
-1319.03
-1319.06
-1319.08
-1319.11
-1319.13
-1319.15
-1319.18
-1319.2
-1319.22
-1319.24
-1319.27
-1319.29
-1319.31
-1319.33
-1319.35
-1319.37
-1319.4
-1319.42
-1319.44
-1319.46
-1319.48
-1319.5
-1319.52
-1319.55
-1319.57
-1319.59
-1319.61
-1319.63
-1319.65
-1319.67
-1319.69
-1319.71
-1319.73
-1319.75
-1319.78
-1319.8
-1319.82
-1319.84
-1319.86
-1319.88
-1319.9
-1319.92
-1319.94
-1319.96
-1319.98
-1320
-1320.03
-1320.05
-1320.07
-1320.09
-1320.11
-1320.13
-1320.15
-1320.17
-1320.19
-1320.22
-1320.24
-1320.26
-1320.28
-1320.3
-1320.32
-1320.35
-1320.37
-1320.39
-1320.41
-1320.43
-1320.46
-1320.48
-1320.5
-1320.52
-1320.54
-1320.57
-1320.59
-1320.61
-1320.64
-1320.66
-1320.68
-1320.71
-1320.73
-1320.75
-1320.78
-1320.8
-1320.83
-1320.85
-1320.88
-1320.9
-1320.93
-1320.95
-1320.98
-1321.01
-1321.03
-1321.06
-1321.09
-1321.12
-1321.15
-1321.18
-1321.21
-1321.24
-1321.27
-1321.3
-1321.34
-1321.37
-1321.4
-1321.44
-1321.48
-1321.51
-1321.55
-1321.59
-1321.63
-1321.67
-1321.71
-1321.75
-1321.8
-1321.84
-1321.89
-1321.94
-1321.99
-1322.04
-1322.09
-1322.14
-1322.19
-1322.25
-1322.31
-1322.36
-1322.42
-1322.49
-1322.55
-1322.61
-1322.68
-1322.75
-1322.82
-1322.89
-1322.96
-1323.03
-1323.11
-1323.19
-1323.27
-1323.35
-1323.43
-1323.52
-1323.6
-1323.69
-1323.78
-1323.87
-1323.97
-1324.06
-1324.16
-1324.26
-1324.36
-1324.46
-1324.56
-1324.67
-1324.78
-1324.88
-1324.99
-1325.11
-1325.22
-1325.33
-1325.45
-1325.57
-1325.69
-1325.81
-1325.93
-1326.05
-1326.18
-1326.3
-1326.43
-1326.55
-1326.68
-1326.81
-1326.94
-1327.07
-1327.2
-1327.34
-1327.47
-1327.6
-1327.74
-1327.87
-1328
-1328.14
-1328.27
-1328.41
-1328.55
-1328.68
-1328.82
-1328.95
-1329.09
-1329.22
-1329.36
-1329.49
-1329.63
-1329.76
-1329.89
-1330.02
-1330.16
-1330.29
-1330.42
-1330.55
-1330.68
-1330.8
-1330.93
-1331.05
-1331.18
-1331.3
-1331.42
-1331.54
-1331.66
-1331.78
-1331.9
-1332.01
-1332.13
-1332.24
-1332.35
-1332.46
-1332.57
-1332.67
-1332.78
-1332.88
-1332.98
-1333.08
-1333.18
-1333.27
-1333.37
-1333.46
-1333.55
-1333.64
-1333.72
-1333.81
-1333.89
-1333.98
-1334.06
-1334.14
-1334.21
-1334.29
-1334.36
-1334.44
-1334.51
-1334.58
-1334.65
-1334.72
-1334.78
-1334.85
-1334.91
-1334.98
-1335.04
-1335.1
-1335.16
-1335.22
-1335.28
-1335.34
-1335.4
-1335.46
-1335.52
-1335.57
-1335.63
-1335.69
-1335.75
-1335.81
-1335.87
-1335.93
-1335.99
-1336.05
-1336.11
-1336.17
-1336.24
-1336.3
-1336.37
-1336.44
-1336.51
-1336.58
-1336.65
-1336.73
-1336.81
-1336.89
-1336.97
-1337.06
-1337.14
-1337.24
-1337.33
-1337.43
-1337.53
-1337.63
-1337.74
-1337.85
-1337.97
-1338.08
-1338.21
-1338.34
-1338.47
-1338.6
-1338.74
-1338.89
-1339.04
-1339.19
-1339.35
-1339.52
-1339.69
-1339.86
-1340.04
-1340.23
-1340.42
-1340.61
-1340.82
-1341.02
-1341.24
-1341.45
-1341.68
-1341.91
-1342.14
-1342.39
-1342.63
-1342.89
-1343.15
-1343.41
-1343.68
-1343.96
-1344.24
-1344.52
-1344.82
-1345.12
-1345.42
-1345.73