/*--------------------------------*- C++ -*----------------------------------*\
| =========                 |                                                 |
| \\      /  F ield         | OpenFOAM: The Open Source CFD Toolbox           |
|  \\    /   O peration     | Version:  v2012                                 |
|   \\  /    A nd           | Website:  www.openfoam.com                      |
|    \\/     M anipulation  |                                                 |
\*---------------------------------------------------------------------------*/
FoamFile
{
    version     2.0;
    format      ascii;
    class       volScalarField;
    location    "100";
    object      p;
}
// * * * * * * * * * * * * * * * * * * * * * * * * * * * * * * * * * * * * * //

dimensions      [1 -1 -2 0 0 0 0];


internalField   nonuniform List<scalar> 
65536
(
139634
139633
139632
139631
139629
139626
139624
139620
139617
139612
139608
139603
139598
139592
139586
139580
139573
139566
139559
139552
139544
139536
139529
139521
139512
139504
139496
139487
139479
139471
139462
139454
139445
139437
139429
139420
139412
139404
139396
139388
139381
139373
139365
139358
139351
139344
139337
139330
139323
139316
139310
139304
139298
139292
139286
139280
139274
139269
139263
139258
139253
139248
139243
139238
139234
139229
139225
139221
139216
139212
139208
139204
139201
139197
139193
139190
139186
139183
139179
139176
139173
139170
139167
139164
139161
139158
139156
139153
139150
139148
139145
139143
139140
139138
139136
139134
139131
139129
139127
139125
139123
139121
139119
139118
139116
139114
139112
139111
139109
139107
139106
139104
139103
139101
139100
139099
139097
139096
139095
139093
139092
139091
139090
139089
139087
139086
139085
139084
139083
139082
139081
139080
139079
139079
139078
139077
139076
139075
139074
139074
139073
139072
139071
139071
139070
139069
139069
139068
139067
139067
139066
139066
139065
139064
139064
139063
139063
139062
139062
139061
139061
139060
139060
139060
139059
139059
139058
139058
139058
139057
139057
139056
139056
139056
139055
139055
139055
139054
139054
139054
139054
139053
139053
139053
139052
139052
139052
139052
139051
139051
139051
139051
139050
139050
139050
139050
139050
139049
139049
139049
139049
139049
139048
139048
139048
139048
139048
139047
139047
139047
139047
139047
139047
139046
139046
139046
139046
139046
139046
139045
139045
139045
139045
139045
139045
139045
139044
139044
139044
139044
139044
139044
139043
139043
139043
139043
139043
139043
139043
139042
139042
139042
139042
139042
139042
139041
139041
139041
139041
139041
139040
139040
139040
139040
139040
139040
139039
139039
139039
139039
139039
139038
139038
139038
139038
139038
139037
139037
139037
139037
139037
139036
139036
139036
139036
139035
139035
139035
139035
139035
139034
139034
139034
139034
139033
139033
139033
139033
139032
139032
139032
139032
139031
139031
139031
139031
139031
139030
139030
139030
139030
139029
139029
139029
139029
139028
139028
139028
139028
139028
139027
139027
139027
139027
139026
139026
139026
139026
139026
139025
139025
139025
139025
139025
139024
139024
139024
139024
139024
139024
139023
139023
139023
139023
139023
139023
139022
139022
139022
139022
139022
139022
139022
139021
139021
139021
139021
139021
139021
139021
139021
139020
139020
139020
139020
139020
139020
139020
139020
139020
139019
139019
139019
139019
139019
139019
139019
139019
139019
139019
139018
139018
139018
139018
139018
139018
139018
139018
139018
139018
139017
139017
139017
139017
139017
139017
139017
139017
139016
139016
139016
139016
139016
139016
139016
139015
139015
139015
139015
139015
139014
139014
139014
139014
139013
139013
139013
139013
139012
139012
139012
139012
139011
139011
139011
139010
139010
139010
139009
139009
139008
139008
139008
139007
139007
139006
139006
139006
139005
139005
139004
139004
139003
139003
139002
139002
139001
139001
139000
139000
138999
138998
138998
138997
138997
138996
138996
138995
138994
138994
138993
138993
138992
138991
138991
138990
138990
138989
138988
138988
138987
138986
138986
138985
138985
138984
138983
138983
138982
138981
138981
138980
138980
138979
138979
138978
138977
138977
138976
138976
138975
138975
138974
138974
138973
138973
138972
138972
138972
138971
138971
138970
138970
138970
138969
138969
138969
138968
138968
138968
138968
138968
138967
138967
138967
138967
138967
138967
138967
138967
138966
138966
138842
138841
138840
138839
138837
138835
138832
138828
138825
138821
138816
138811
138806
138800
138794
138788
138781
138774
138767
138760
138752
138745
138737
138729
138721
138713
138704
138696
138688
138679
138671
138662
138654
138646
138637
138629
138621
138613
138605
138597
138589
138582
138574
138567
138560
138553
138546
138539
138532
138526
138519
138513
138507
138501
138495
138489
138484
138478
138473
138468
138463
138458
138453
138448
138443
138439
138435
138430
138426
138422
138418
138414
138410
138407
138403
138400
138396
138393
138389
138386
138383
138380
138377
138374
138371
138368
138366
138363
138360
138358
138355
138353
138351
138348
138346
138344
138342
138340
138338
138336
138334
138332
138330
138328
138326
138324
138323
138321
138319
138318
138316
138315
138313
138312
138310
138309
138308
138306
138305
138304
138303
138301
138300
138299
138298
138297
138296
138295
138294
138293
138292
138291
138290
138289
138288
138287
138287
138286
138285
138284
138283
138283
138282
138281
138281
138280
138279
138279
138278
138277
138277
138276
138276
138275
138275
138274
138274
138273
138273
138272
138272
138271
138271
138270
138270
138269
138269
138269
138268
138268
138268
138267
138267
138266
138266
138266
138265
138265
138265
138265
138264
138264
138264
138263
138263
138263
138263
138262
138262
138262
138262
138261
138261
138261
138261
138261
138260
138260
138260
138260
138259
138259
138259
138259
138259
138259
138258
138258
138258
138258
138258
138258
138257
138257
138257
138257
138257
138257
138256
138256
138256
138256
138256
138256
138255
138255
138255
138255
138255
138255
138255
138254
138254
138254
138254
138254
138254
138253
138253
138253
138253
138253
138253
138253
138252
138252
138252
138252
138252
138251
138251
138251
138251
138251
138251
138250
138250
138250
138250
138250
138249
138249
138249
138249
138249
138248
138248
138248
138248
138248
138247
138247
138247
138247
138247
138246
138246
138246
138246
138245
138245
138245
138245
138244
138244
138244
138244
138244
138243
138243
138243
138243
138242
138242
138242
138242
138241
138241
138241
138241
138240
138240
138240
138240
138240
138239
138239
138239
138239
138238
138238
138238
138238
138238
138237
138237
138237
138237
138237
138236
138236
138236
138236
138236
138235
138235
138235
138235
138235
138234
138234
138234
138234
138234
138234
138233
138233
138233
138233
138233
138233
138233
138232
138232
138232
138232
138232
138232
138232
138232
138231
138231
138231
138231
138231
138231
138231
138231
138231
138230
138230
138230
138230
138230
138230
138230
138230
138230
138230
138230
138229
138229
138229
138229
138229
138229
138229
138229
138229
138228
138228
138228
138228
138228
138228
138228
138228
138228
138227
138227
138227
138227
138227
138227
138226
138226
138226
138226
138226
138225
138225
138225
138225
138225
138224
138224
138224
138224
138223
138223
138223
138222
138222
138222
138222
138221
138221
138221
138220
138220
138219
138219
138219
138218
138218
138217
138217
138217
138216
138216
138215
138215
138214
138214
138213
138213
138212
138212
138211
138211
138210
138209
138209
138208
138208
138207
138207
138206
138205
138205
138204
138204
138203
138202
138202
138201
138201
138200
138199
138199
138198
138197
138197
138196
138196
138195
138194
138194
138193
138193
138192
138191
138191
138190
138190
138189
138188
138188
138187
138187
138186
138186
138185
138185
138184
138184
138184
138183
138183
138182
138182
138181
138181
138181
138180
138180
138180
138180
138179
138179
138179
138179
138178
138178
138178
138178
138178
138178
138178
138178
138178
138178
138053
138053
138052
138050
138048
138046
138043
138040
138036
138032
138027
138022
138017
138012
138006
137999
137993
137986
137979
137971
137964
137956
137948
137940
137932
137924
137916
137908
137899
137891
137882
137874
137866
137857
137849
137841
137833
137825
137817
137809
137801
137794
137786
137779
137772
137765
137758
137751
137744
137738
137731
137725
137719
137713
137707
137702
137696
137691
137685
137680
137675
137670
137665
137661
137656
137652
137647
137643
137639
137635
137631
137627
137623
137620
137616
137613
137609
137606
137602
137599
137596
137593
137590
137587
137584
137582
137579
137576
137574
137571
137569
137566
137564
137562
137559
137557
137555
137553
137551
137549
137547
137545
137543
137541
137540
137538
137536
137535
137533
137531
137530
137528
137527
137525
137524
137523
137521
137520
137519
137517
137516
137515
137514
137513
137512
137511
137510
137509
137508
137507
137506
137505
137504
137503
137502
137501
137500
137500
137499
137498
137497
137497
137496
137495
137494
137494
137493
137492
137492
137491
137491
137490
137490
137489
137488
137488
137487
137487
137486
137486
137486
137485
137485
137484
137484
137483
137483
137483
137482
137482
137481
137481
137481
137480
137480
137480
137479
137479
137479
137478
137478
137478
137478
137477
137477
137477
137477
137476
137476
137476
137476
137475
137475
137475
137475
137474
137474
137474
137474
137474
137473
137473
137473
137473
137473
137473
137472
137472
137472
137472
137472
137471
137471
137471
137471
137471
137471
137471
137470
137470
137470
137470
137470
137470
137469
137469
137469
137469
137469
137469
137469
137468
137468
137468
137468
137468
137468
137467
137467
137467
137467
137467
137467
137467
137466
137466
137466
137466
137466
137465
137465
137465
137465
137465
137465
137464
137464
137464
137464
137464
137463
137463
137463
137463
137463
137462
137462
137462
137462
137462
137461
137461
137461
137461
137461
137460
137460
137460
137460
137459
137459
137459
137459
137459
137458
137458
137458
137458
137457
137457
137457
137457
137456
137456
137456
137456
137455
137455
137455
137455
137455
137454
137454
137454
137454
137453
137453
137453
137453
137452
137452
137452
137452
137452
137451
137451
137451
137451
137451
137450
137450
137450
137450
137450
137449
137449
137449
137449
137449
137449
137448
137448
137448
137448
137448
137448
137447
137447
137447
137447
137447
137447
137447
137446
137446
137446
137446
137446
137446
137446
137446
137445
137445
137445
137445
137445
137445
137445
137445
137445
137444
137444
137444
137444
137444
137444
137444
137444
137444
137444
137444
137443
137443
137443
137443
137443
137443
137443
137443
137443
137442
137442
137442
137442
137442
137442
137442
137442
137441
137441
137441
137441
137441
137441
137441
137440
137440
137440
137440
137440
137439
137439
137439
137439
137438
137438
137438
137438
137437
137437
137437
137437
137436
137436
137436
137435
137435
137435
137434
137434
137434
137433
137433
137432
137432
137432
137431
137431
137430
137430
137429
137429
137428
137428
137427
137427
137426
137426
137425
137425
137424
137424
137423
137423
137422
137421
137421
137420
137420
137419
137418
137418
137417
137417
137416
137415
137415
137414
137414
137413
137412
137412
137411
137410
137410
137409
137409
137408
137407
137407
137406
137406
137405
137404
137404
137403
137403
137402
137402
137401
137401
137400
137400
137399
137399
137398
137398
137397
137397
137397
137396
137396
137395
137395
137395
137394
137394
137394
137394
137393
137393
137393
137393
137393
137392
137392
137392
137392
137392
137392
137392
137392
137268
137267
137267
137265
137263
137261
137258
137255
137251
137247
137242
137237
137232
137226
137220
137214
137208
137201
137194
137186
137179
137171
137163
137155
137147
137139
137131
137122
137114
137106
137097
137089
137081
137072
137064
137056
137048
137040
137032
137024
137016
137009
137001
136994
136987
136980
136973
136966
136960
136953
136947
136941
136934
136929
136923
136917
136912
136906
136901
136896
136891
136886
136881
136876
136872
136867
136863
136859
136855
136851
136847
136843
136839
136836
136832
136829
136825
136822
136819
136815
136812
136809
136806
136803
136801
136798
136795
136793
136790
136788
136785
136783
136780
136778
136776
136774
136772
136770
136767
136765
136764
136762
136760
136758
136756
136755
136753
136751
136750
136748
136747
136745
136744
136742
136741
136739
136738
136737
136736
136734
136733
136732
136731
136730
136729
136727
136726
136725
136724
136723
136723
136722
136721
136720
136719
136718
136717
136716
136716
136715
136714
136713
136713
136712
136711
136711
136710
136709
136709
136708
136708
136707
136707
136706
136706
136705
136704
136704
136704
136703
136703
136702
136702
136701
136701
136700
136700
136700
136699
136699
136699
136698
136698
136697
136697
136697
136697
136696
136696
136696
136695
136695
136695
136694
136694
136694
136694
136693
136693
136693
136693
136692
136692
136692
136692
136692
136691
136691
136691
136691
136691
136690
136690
136690
136690
136690
136689
136689
136689
136689
136689
136689
136688
136688
136688
136688
136688
136688
136688
136687
136687
136687
136687
136687
136687
136686
136686
136686
136686
136686
136686
136686
136685
136685
136685
136685
136685
136685
136684
136684
136684
136684
136684
136684
136684
136683
136683
136683
136683
136683
136682
136682
136682
136682
136682
136682
136681
136681
136681
136681
136681
136680
136680
136680
136680
136680
136679
136679
136679
136679
136679
136678
136678
136678
136678
136678
136677
136677
136677
136677
136676
136676
136676
136676
136676
136675
136675
136675
136675
136674
136674
136674
136674
136673
136673
136673
136673
136672
136672
136672
136672
136672
136671
136671
136671
136671
136670
136670
136670
136670
136670
136669
136669
136669
136669
136668
136668
136668
136668
136668
136667
136667
136667
136667
136667
136667
136666
136666
136666
136666
136666
136665
136665
136665
136665
136665
136665
136665
136664
136664
136664
136664
136664
136664
136664
136663
136663
136663
136663
136663
136663
136663
136663
136662
136662
136662
136662
136662
136662
136662
136662
136662
136662
136661
136661
136661
136661
136661
136661
136661
136661
136661
136661
136661
136660
136660
136660
136660
136660
136660
136660
136660
136660
136659
136659
136659
136659
136659
136659
136659
136658
136658
136658
136658
136658
136658
136657
136657
136657
136657
136657
136656
136656
136656
136656
136656
136655
136655
136655
136655
136654
136654
136654
136653
136653
136653
136652
136652
136652
136651
136651
136651
136650
136650
136649
136649
136648
136648
136648
136647
136647
136646
136646
136645
136645
136644
136644
136643
136643
136642
136642
136641
136640
136640
136639
136639
136638
136638
136637
136636
136636
136635
136635
136634
136633
136633
136632
136632
136631
136630
136630
136629
136628
136628
136627
136627
136626
136625
136625
136624
136624
136623
136622
136622
136621
136621
136620
136620
136619
136619
136618
136618
136617
136617
136616
136616
136615
136615
136614
136614
136614
136613
136613
136613
136612
136612
136612
136611
136611
136611
136611
136610
136610
136610
136610
136610
136610
136610
136609
136609
136609
136609
136486
136486
136485
136483
136481
136479
136476
136473
136469
136465
136460
136455
136450
136444
136439
136432
136426
136419
136412
136404
136397
136389
136381
136373
136365
136357
136349
136340
136332
136324
136315
136307
136299
136290
136282
136274
136266
136258
136250
136242
136235
136227
136220
136212
136205
136198
136191
136184
136178
136171
136165
136159
136153
136147
136141
136136
136130
136125
136120
136114
136109
136105
136100
136095
136091
136086
136082
136078
136074
136070
136066
136062
136058
136055
136051
136048
136044
136041
136038
136035
136032
136029
136026
136023
136020
136017
136015
136012
136010
136007
136005
136002
136000
135998
135995
135993
135991
135989
135987
135985
135983
135981
135980
135978
135976
135974
135973
135971
135969
135968
135966
135965
135963
135962
135961
135959
135958
135957
135955
135954
135953
135952
135951
135950
135949
135947
135946
135945
135944
135944
135943
135942
135941
135940
135939
135938
135937
135937
135936
135935
135934
135934
135933
135932
135932
135931
135930
135930
135929
135928
135928
135927
135927
135926
135926
135925
135925
135924
135924
135923
135923
135922
135922
135922
135921
135921
135920
135920
135920
135919
135919
135918
135918
135918
135917
135917
135917
135916
135916
135916
135916
135915
135915
135915
135914
135914
135914
135914
135913
135913
135913
135913
135913
135912
135912
135912
135912
135912
135911
135911
135911
135911
135911
135910
135910
135910
135910
135910
135909
135909
135909
135909
135909
135909
135908
135908
135908
135908
135908
135908
135908
135907
135907
135907
135907
135907
135907
135907
135906
135906
135906
135906
135906
135906
135905
135905
135905
135905
135905
135905
135905
135904
135904
135904
135904
135904
135904
135903
135903
135903
135903
135903
135903
135902
135902
135902
135902
135902
135901
135901
135901
135901
135901
135900
135900
135900
135900
135900
135899
135899
135899
135899
135899
135898
135898
135898
135898
135897
135897
135897
135897
135897
135896
135896
135896
135896
135895
135895
135895
135895
135895
135894
135894
135894
135894
135893
135893
135893
135893
135892
135892
135892
135892
135892
135891
135891
135891
135891
135890
135890
135890
135890
135890
135889
135889
135889
135889
135889
135888
135888
135888
135888
135888
135887
135887
135887
135887
135887
135886
135886
135886
135886
135886
135886
135885
135885
135885
135885
135885
135885
135885
135884
135884
135884
135884
135884
135884
135884
135884
135883
135883
135883
135883
135883
135883
135883
135883
135883
135882
135882
135882
135882
135882
135882
135882
135882
135882
135882
135881
135881
135881
135881
135881
135881
135881
135881
135881
135881
135880
135880
135880
135880
135880
135880
135880
135880
135880
135879
135879
135879
135879
135879
135879
135879
135878
135878
135878
135878
135878
135877
135877
135877
135877
135877
135876
135876
135876
135876
135875
135875
135875
135874
135874
135874
135874
135873
135873
135873
135872
135872
135871
135871
135871
135870
135870
135869
135869
135869
135868
135868
135867
135867
135866
135866
135865
135865
135864
135864
135863
135863
135862
135862
135861
135860
135860
135859
135859
135858
135858
135857
135856
135856
135855
135855
135854
135853
135853
135852
135852
135851
135850
135850
135849
135848
135848
135847
135847
135846
135845
135845
135844
135844
135843
135843
135842
135841
135841
135840
135840
135839
135839
135838
135838
135837
135837
135836
135836
135835
135835
135835
135834
135834
135834
135833
135833
135833
135832
135832
135832
135832
135831
135831
135831
135831
135831
135830
135830
135830
135830
135830
135830
135830
135708
135707
135706
135705
135703
135701
135698
135694
135691
135686
135682
135677
135672
135666
135660
135654
135647
135640
135633
135626
135618
135610
135603
135595
135586
135578
135570
135562
135553
135545
135536
135528
135520
135511
135503
135495
135487
135479
135471
135463
135456
135448
135441
135434
135426
135419
135413
135406
135399
135393
135386
135380
135374
135368
135363
135357
135352
135346
135341
135336
135331
135326
135322
135317
135312
135308
135304
135300
135296
135292
135288
135284
135280
135277
135273
135270
135267
135263
135260
135257
135254
135251
135248
135245
135242
135240
135237
135235
135232
135230
135227
135225
135223
135220
135218
135216
135214
135212
135210
135208
135206
135204
135202
135201
135199
135197
135196
135194
135192
135191
135189
135188
135186
135185
135184
135182
135181
135180
135179
135177
135176
135175
135174
135173
135172
135171
135170
135169
135168
135167
135166
135165
135164
135163
135162
135161
135161
135160
135159
135158
135158
135157
135156
135156
135155
135154
135154
135153
135152
135152
135151
135151
135150
135150
135149
135149
135148
135148
135147
135147
135146
135146
135145
135145
135144
135144
135144
135143
135143
135143
135142
135142
135142
135141
135141
135141
135140
135140
135140
135139
135139
135139
135138
135138
135138
135138
135137
135137
135137
135137
135136
135136
135136
135136
135136
135135
135135
135135
135135
135135
135134
135134
135134
135134
135134
135133
135133
135133
135133
135133
135133
135132
135132
135132
135132
135132
135132
135132
135131
135131
135131
135131
135131
135131
135130
135130
135130
135130
135130
135130
135130
135129
135129
135129
135129
135129
135129
135129
135128
135128
135128
135128
135128
135128
135127
135127
135127
135127
135127
135127
135126
135126
135126
135126
135126
135126
135125
135125
135125
135125
135125
135124
135124
135124
135124
135124
135123
135123
135123
135123
135123
135122
135122
135122
135122
135122
135121
135121
135121
135121
135120
135120
135120
135120
135119
135119
135119
135119
135119
135118
135118
135118
135118
135117
135117
135117
135117
135117
135116
135116
135116
135116
135115
135115
135115
135115
135114
135114
135114
135114
135114
135113
135113
135113
135113
135113
135112
135112
135112
135112
135112
135111
135111
135111
135111
135111
135110
135110
135110
135110
135110
135110
135109
135109
135109
135109
135109
135109
135108
135108
135108
135108
135108
135108
135108
135108
135107
135107
135107
135107
135107
135107
135107
135107
135107
135106
135106
135106
135106
135106
135106
135106
135106
135106
135106
135105
135105
135105
135105
135105
135105
135105
135105
135105
135105
135104
135104
135104
135104
135104
135104
135104
135104
135104
135103
135103
135103
135103
135103
135103
135103
135102
135102
135102
135102
135102
135102
135101
135101
135101
135101
135101
135100
135100
135100
135100
135099
135099
135099
135099
135098
135098
135098
135098
135097
135097
135097
135096
135096
135095
135095
135095
135094
135094
135094
135093
135093
135092
135092
135091
135091
135090
135090
135089
135089
135088
135088
135087
135087
135086
135086
135085
135085
135084
135084
135083
135083
135082
135081
135081
135080
135080
135079
135078
135078
135077
135077
135076
135075
135075
135074
135073
135073
135072
135072
135071
135070
135070
135069
135069
135068
135067
135067
135066
135066
135065
135065
135064
135064
135063
135063
135062
135062
135061
135061
135060
135060
135059
135059
135058
135058
135058
135057
135057
135057
135056
135056
135056
135056
135055
135055
135055
135055
135055
135054
135054
135054
135054
135054
135054
135054
135054
134933
134932
134931
134930
134928
134926
134923
134919
134916
134911
134907
134902
134896
134891
134885
134878
134872
134865
134858
134850
134843
134835
134827
134819
134811
134803
134794
134786
134777
134769
134761
134752
134744
134736
134727
134719
134711
134703
134695
134688
134680
134672
134665
134658
134651
134644
134637
134630
134624
134617
134611
134605
134599
134593
134587
134582
134576
134571
134566
134561
134556
134551
134546
134542
134537
134533
134529
134525
134521
134517
134513
134509
134506
134502
134499
134495
134492
134489
134485
134482
134479
134476
134474
134471
134468
134465
134463
134460
134458
134455
134453
134451
134448
134446
134444
134442
134440
134438
134436
134434
134432
134430
134428
134427
134425
134423
134422
134420
134418
134417
134415
134414
134413
134411
134410
134409
134407
134406
134405
134404
134402
134401
134400
134399
134398
134397
134396
134395
134394
134393
134392
134391
134390
134389
134389
134388
134387
134386
134386
134385
134384
134383
134383
134382
134381
134381
134380
134379
134379
134378
134378
134377
134377
134376
134376
134375
134375
134374
134374
134373
134373
134372
134372
134371
134371
134371
134370
134370
134370
134369
134369
134368
134368
134368
134367
134367
134367
134367
134366
134366
134366
134365
134365
134365
134365
134364
134364
134364
134364
134363
134363
134363
134363
134362
134362
134362
134362
134362
134361
134361
134361
134361
134361
134360
134360
134360
134360
134360
134360
134359
134359
134359
134359
134359
134359
134358
134358
134358
134358
134358
134358
134358
134357
134357
134357
134357
134357
134357
134357
134356
134356
134356
134356
134356
134356
134355
134355
134355
134355
134355
134355
134355
134354
134354
134354
134354
134354
134354
134353
134353
134353
134353
134353
134353
134352
134352
134352
134352
134352
134351
134351
134351
134351
134351
134351
134350
134350
134350
134350
134349
134349
134349
134349
134349
134348
134348
134348
134348
134348
134347
134347
134347
134347
134346
134346
134346
134346
134346
134345
134345
134345
134345
134344
134344
134344
134344
134344
134343
134343
134343
134343
134342
134342
134342
134342
134341
134341
134341
134341
134341
134340
134340
134340
134340
134340
134339
134339
134339
134339
134339
134338
134338
134338
134338
134338
134337
134337
134337
134337
134337
134337
134336
134336
134336
134336
134336
134336
134335
134335
134335
134335
134335
134335
134335
134334
134334
134334
134334
134334
134334
134334
134334
134334
134333
134333
134333
134333
134333
134333
134333
134333
134333
134333
134332
134332
134332
134332
134332
134332
134332
134332
134332
134332
134331
134331
134331
134331
134331
134331
134331
134331
134331
134331
134330
134330
134330
134330
134330
134330
134330
134329
134329
134329
134329
134329
134329
134328
134328
134328
134328
134328
134327
134327
134327
134327
134327
134326
134326
134326
134326
134325
134325
134325
134324
134324
134324
134323
134323
134323
134322
134322
134322
134321
134321
134320
134320
134320
134319
134319
134318
134318
134317
134317
134316
134316
134315
134315
134314
134314
134313
134313
134312
134312
134311
134311
134310
134309
134309
134308
134308
134307
134306
134306
134305
134305
134304
134303
134303
134302
134302
134301
134300
134300
134299
134299
134298
134297
134297
134296
134296
134295
134294
134294
134293
134293
134292
134292
134291
134291
134290
134290
134289
134289
134288
134288
134287
134287
134286
134286
134285
134285
134285
134284
134284
134284
134283
134283
134283
134283
134282
134282
134282
134282
134282
134281
134281
134281
134281
134281
134281
134281
134281
134161
134161
134160
134158
134156
134154
134151
134148
134144
134140
134135
134130
134125
134119
134113
134106
134100
134093
134085
134078
134070
134063
134055
134047
134038
134030
134022
134013
134005
133996
133988
133980
133971
133963
133955
133947
133938
133930
133923
133915
133907
133900
133892
133885
133878
133871
133864
133857
133851
133845
133838
133832
133826
133820
133815
133809
133804
133799
133793
133788
133784
133779
133774
133770
133765
133761
133757
133753
133749
133745
133741
133737
133734
133730
133727
133723
133720
133717
133714
133711
133708
133705
133702
133699
133697
133694
133691
133689
133686
133684
133682
133679
133677
133675
133673
133671
133669
133667
133665
133663
133661
133659
133657
133656
133654
133652
133651
133649
133648
133646
133645
133643
133642
133640
133639
133638
133637
133635
133634
133633
133632
133631
133630
133628
133627
133626
133625
133624
133623
133623
133622
133621
133620
133619
133618
133617
133617
133616
133615
133614
133614
133613
133612
133612
133611
133610
133610
133609
133609
133608
133607
133607
133606
133606
133605
133605
133604
133604
133603
133603
133602
133602
133602
133601
133601
133600
133600
133600
133599
133599
133599
133598
133598
133598
133597
133597
133597
133596
133596
133596
133595
133595
133595
133595
133594
133594
133594
133594
133593
133593
133593
133593
133592
133592
133592
133592
133592
133591
133591
133591
133591
133591
133590
133590
133590
133590
133590
133590
133589
133589
133589
133589
133589
133589
133588
133588
133588
133588
133588
133588
133588
133587
133587
133587
133587
133587
133587
133586
133586
133586
133586
133586
133586
133586
133585
133585
133585
133585
133585
133585
133585
133584
133584
133584
133584
133584
133584
133583
133583
133583
133583
133583
133583
133582
133582
133582
133582
133582
133582
133581
133581
133581
133581
133581
133580
133580
133580
133580
133580
133579
133579
133579
133579
133579
133578
133578
133578
133578
133577
133577
133577
133577
133577
133576
133576
133576
133576
133575
133575
133575
133575
133575
133574
133574
133574
133574
133573
133573
133573
133573
133573
133572
133572
133572
133572
133571
133571
133571
133571
133571
133570
133570
133570
133570
133570
133569
133569
133569
133569
133569
133568
133568
133568
133568
133568
133567
133567
133567
133567
133567
133567
133566
133566
133566
133566
133566
133566
133565
133565
133565
133565
133565
133565
133565
133564
133564
133564
133564
133564
133564
133564
133564
133564
133563
133563
133563
133563
133563
133563
133563
133563
133563
133562
133562
133562
133562
133562
133562
133562
133562
133562
133562
133562
133561
133561
133561
133561
133561
133561
133561
133561
133561
133560
133560
133560
133560
133560
133560
133560
133560
133559
133559
133559
133559
133559
133559
133558
133558
133558
133558
133558
133557
133557
133557
133557
133557
133556
133556
133556
133556
133555
133555
133555
133554
133554
133554
133553
133553
133553
133552
133552
133552
133551
133551
133550
133550
133550
133549
133549
133548
133548
133547
133547
133546
133546
133545
133545
133544
133544
133543
133543
133542
133542
133541
133541
133540
133539
133539
133538
133538
133537
133537
133536
133535
133535
133534
133534
133533
133532
133532
133531
133530
133530
133529
133529
133528
133527
133527
133526
133526
133525
133525
133524
133523
133523
133522
133522
133521
133521
133520
133520
133519
133519
133518
133518
133517
133517
133516
133516
133516
133515
133515
133515
133514
133514
133514
133513
133513
133513
133512
133512
133512
133512
133512
133512
133511
133511
133511
133511
133511
133511
133511
133393
133392
133391
133390
133388
133386
133383
133379
133375
133371
133366
133361
133356
133350
133344
133337
133331
133324
133316
133309
133301
133293
133285
133277
133269
133261
133252
133244
133235
133227
133218
133210
133202
133193
133185
133177
133169
133161
133153
133145
133137
133130
133123
133115
133108
133101
133094
133088
133081
133075
133069
133063
133057
133051
133045
133040
133034
133029
133024
133019
133014
133010
133005
133001
132996
132992
132988