/*--------------------------------*- C++ -*----------------------------------*\
| =========                 |                                                 |
| \\      /  F ield         | OpenFOAM: The Open Source CFD Toolbox           |
|  \\    /   O peration     | Version:  v2012                                 |
|   \\  /    A nd           | Website:  www.openfoam.com                      |
|    \\/     M anipulation  |                                                 |
\*---------------------------------------------------------------------------*/
FoamFile
{
    version     2.0;
    format      ascii;
    class       volScalarField;
    location    "100";
    object      p_rgh;
}
// * * * * * * * * * * * * * * * * * * * * * * * * * * * * * * * * * * * * * //

dimensions      [1 -1 -2 0 0 0 0];


internalField   nonuniform List<scalar> 
65536
(
40030.6
40030.1
40029.2
40027.7
40025.8
40023.4
40020.5
40017.2
40013.5
40009.3
40004.8
39999.8
39994.5
39988.8
39982.8
39976.4
39969.8
39962.9
39955.8
39948.4
39940.9
39933.1
39925.2
39917.2
39909
39900.7
39892.4
39884
39875.6
39867.1
39858.7
39850.2
39841.8
39833.4
39825.1
39816.8
39808.7
39800.6
39792.6
39784.7
39776.9
39769.2
39761.7
39754.3
39747
39739.8
39732.8
39725.9
39719.2
39712.6
39706.1
39699.8
39693.6
39687.6
39681.7
39675.9
39670.3
39664.8
39659.4
39654.2
39649.1
39644.1
39639.2
39634.4
39629.8
39625.2
39620.8
39616.5
39612.3
39608.2
39604.2
39600.2
39596.4
39592.7
39589
39585.5
39582
39578.6
39575.3
39572
39568.9
39565.8
39562.7
39559.8
39556.9
39554.1
39551.3
39548.7
39546
39543.5
39541
39538.5
39536.1
39533.8
39531.5
39529.3
39527.1
39525
39522.9
39520.8
39518.9
39516.9
39515
39513.2
39511.4
39509.6
39507.9
39506.2
39504.6
39503
39501.4
39499.9
39498.4
39496.9
39495.5
39494.1
39492.7
39491.4
39490.1
39488.8
39487.6
39486.4
39485.2
39484.1
39483
39481.9
39480.8
39479.8
39478.8
39477.8
39476.8
39475.8
39474.9
39474
39473.1
39472.3
39471.5
39470.6
39469.8
39469.1
39468.3
39467.6
39466.8
39466.1
39465.4
39464.8
39464.1
39463.5
39462.8
39462.2
39461.6
39461
39460.5
39459.9
39459.4
39458.9
39458.3
39457.8
39457.3
39456.9
39456.4
39455.9
39455.5
39455
39454.6
39454.2
39453.8
39453.4
39453
39452.6
39452.2
39451.9
39451.5
39451.2
39450.8
39450.5
39450.2
39449.9
39449.5
39449.2
39448.9
39448.6
39448.4
39448.1
39447.8
39447.5
39447.3
39447
39446.8
39446.5
39446.3
39446.1
39445.8
39445.6
39445.4
39445.2
39444.9
39444.7
39444.5
39444.3
39444.1
39443.9
39443.7
39443.6
39443.4
39443.2
39443
39442.8
39442.7
39442.5
39442.3
39442.1
39442
39441.8
39441.6
39441.5
39441.3
39441.2
39441
39440.9
39440.7
39440.5
39440.4
39440.2
39440.1
39439.9
39439.8
39439.6
39439.5
39439.3
39439.2
39439
39438.8
39438.7
39438.5
39438.4
39438.2
39438.1
39437.9
39437.7
39437.6
39437.4
39437.3
39437.1
39436.9
39436.8
39436.6
39436.4
39436.2
39436.1
39435.9
39435.7
39435.5
39435.3
39435.2
39435
39434.8
39434.6
39434.4
39434.2
39434
39433.8
39433.6
39433.4
39433.2
39433
39432.8
39432.6
39432.4
39432.2
39431.9
39431.7
39431.5
39431.3
39431.1
39430.8
39430.6
39430.4
39430.2
39429.9
39429.7
39429.5
39429.2
39429
39428.8
39428.5
39428.3
39428.1
39427.8
39427.6
39427.3
39427.1
39426.9
39426.6
39426.4
39426.1
39425.9
39425.7
39425.4
39425.2
39425
39424.7
39424.5
39424.3
39424
39423.8
39423.6
39423.4
39423.1
39422.9
39422.7
39422.5
39422.2
39422
39421.8
39421.6
39421.4
39421.2
39421
39420.8
39420.6
39420.4
39420.2
39420
39419.8
39419.6
39419.4
39419.2
39419.1
39418.9
39418.7
39418.5
39418.4
39418.2
39418.1
39417.9
39417.7
39417.6
39417.4
39417.3
39417.2
39417
39416.9
39416.7
39416.6
39416.5
39416.4
39416.2
39416.1
39416
39415.9
39415.8
39415.6
39415.5
39415.4
39415.3
39415.2
39415.1
39415
39414.9
39414.8
39414.7
39414.6
39414.5
39414.4
39414.3
39414.2
39414.1
39414
39413.9
39413.8
39413.7
39413.6
39413.5
39413.4
39413.3
39413.2
39413.1
39413
39412.9
39412.8
39412.7
39412.6
39412.5
39412.3
39412.2
39412.1
39411.9
39411.8
39411.6
39411.5
39411.3
39411.2
39411
39410.8
39410.7
39410.5
39410.3
39410.1
39409.9
39409.7
39409.5
39409.2
39409
39408.8
39408.5
39408.3
39408
39407.7
39407.5
39407.2
39406.9
39406.6
39406.3
39405.9
39405.6
39405.3
39404.9
39404.5
39404.2
39403.8
39403.4
39403
39402.6
39402.2
39401.8
39401.3
39400.9
39400.4
39400
39399.5
39399
39398.5
39398
39397.5
39397
39396.5
39396
39395.4
39394.9
39394.3
39393.8
39393.2
39392.7
39392.1
39391.5
39390.9
39390.3
39389.7
39389.1
39388.5
39387.9
39387.3
39386.7
39386
39385.4
39384.8
39384.2
39383.5
39382.9
39382.3
39381.7
39381
39380.4
39379.8
39379.2
39378.6
39377.9
39377.3
39376.7
39376.1
39375.5
39375
39374.4
39373.8
39373.2
39372.7
39372.1
39371.6
39371.1
39370.5
39370
39369.5
39369
39368.6
39368.1
39367.7
39367.2
39366.8
39366.4
39366
39365.6
39365.3
39364.9
39364.6
39364.3
39364
39363.7
39363.4
39363.2
39363
39362.8
39362.6
39362.4
39362.2
39362.1
39362
39361.9
39361.8
39361.8
39361.7
39361.7
40027.6
40027.2
40026.2
40024.7
40022.8
40020.4
40017.5
40014.2
40010.5
40006.3
40001.7
39996.8
39991.4
39985.7
39979.7
39973.4
39966.7
39959.8
39952.7
39945.3
39937.7
39930
39922
39914
39905.8
39897.5
39889.2
39880.8
39872.3
39863.9
39855.4
39847
39838.5
39830.1
39821.8
39813.5
39805.4
39797.3
39789.3
39781.3
39773.6
39765.9
39758.3
39750.9
39743.6
39736.5
39729.4
39722.6
39715.8
39709.2
39702.8
39696.4
39690.3
39684.2
39678.3
39672.6
39666.9
39661.4
39656.1
39650.8
39645.7
39640.7
39635.8
39631.1
39626.4
39621.9
39617.5
39613.2
39609
39604.8
39600.8
39596.9
39593.1
39589.4
39585.7
39582.1
39578.7
39575.3
39572
39568.7
39565.6
39562.5
39559.4
39556.5
39553.6
39550.8
39548.1
39545.4
39542.7
39540.2
39537.7
39535.2
39532.8
39530.5
39528.2
39526
39523.8
39521.7
39519.6
39517.6
39515.6
39513.7
39511.8
39509.9
39508.1
39506.4
39504.6
39503
39501.3
39499.7
39498.1
39496.6
39495.1
39493.7
39492.2
39490.8
39489.5
39488.2
39486.9
39485.6
39484.4
39483.2
39482
39480.9
39479.7
39478.6
39477.6
39476.5
39475.5
39474.5
39473.6
39472.6
39471.7
39470.8
39469.9
39469.1
39468.2
39467.4
39466.6
39465.8
39465.1
39464.3
39463.6
39462.9
39462.2
39461.5
39460.9
39460.2
39459.6
39459
39458.4
39457.8
39457.3
39456.7
39456.2
39455.6
39455.1
39454.6
39454.1
39453.6
39453.2
39452.7
39452.3
39451.8
39451.4
39451
39450.6
39450.2
39449.8
39449.4
39449
39448.7
39448.3
39448
39447.6
39447.3
39447
39446.6
39446.3
39446
39445.7
39445.4
39445.2
39444.9
39444.6
39444.3
39444.1
39443.8
39443.6
39443.3
39443.1
39442.9
39442.6
39442.4
39442.2
39442
39441.7
39441.5
39441.3
39441.1
39440.9
39440.7
39440.5
39440.4
39440.2
39440
39439.8
39439.6
39439.4
39439.3
39439.1
39438.9
39438.8
39438.6
39438.4
39438.3
39438.1
39438
39437.8
39437.6
39437.5
39437.3
39437.2
39437
39436.9
39436.7
39436.6
39436.4
39436.3
39436.1
39436
39435.8
39435.6
39435.5
39435.3
39435.2
39435
39434.9
39434.7
39434.5
39434.4
39434.2
39434.1
39433.9
39433.7
39433.5
39433.4
39433.2
39433
39432.9
39432.7
39432.5
39432.3
39432.1
39432
39431.8
39431.6
39431.4
39431.2
39431
39430.8
39430.6
39430.4
39430.2
39430
39429.8
39429.6
39429.4
39429.2
39428.9
39428.7
39428.5
39428.3
39428.1
39427.9
39427.6
39427.4
39427.2
39427
39426.7
39426.5
39426.3
39426
39425.8
39425.6
39425.3
39425.1
39424.9
39424.6
39424.4
39424.1
39423.9
39423.7
39423.4
39423.2
39423
39422.7
39422.5
39422.2
39422
39421.8
39421.5
39421.3
39421.1
39420.8
39420.6
39420.4
39420.2
39419.9
39419.7
39419.5
39419.3
39419
39418.8
39418.6
39418.4
39418.2
39418
39417.8
39417.6
39417.4
39417.2
39417
39416.8
39416.6
39416.4
39416.2
39416.1
39415.9
39415.7
39415.5
39415.4
39415.2
39415
39414.9
39414.7
39414.5
39414.4
39414.2
39414.1
39414
39413.8
39413.7
39413.5
39413.4
39413.3
39413.2
39413
39412.9
39412.8
39412.7
39412.6
39412.4
39412.3
39412.2
39412.1
39412
39411.9
39411.8
39411.7
39411.6
39411.5
39411.4
39411.3
39411.2
39411.1
39411
39410.9
39410.8
39410.7
39410.6
39410.5
39410.5
39410.4
39410.3
39410.2
39410
39409.9
39409.8
39409.7
39409.6
39409.5
39409.4
39409.3
39409.1
39409
39408.9
39408.7
39408.6
39408.4
39408.3
39408.1
39408
39407.8
39407.6
39407.5
39407.3
39407.1
39406.9
39406.7
39406.5
39406.3
39406
39405.8
39405.6
39405.3
39405.1
39404.8
39404.5
39404.3
39404
39403.7
39403.4
39403.1
39402.7
39402.4
39402.1
39401.7
39401.3
39401
39400.6
39400.2
39399.8
39399.4
39399
39398.6
39398.1
39397.7
39397.2
39396.8
39396.3
39395.8
39395.3
39394.8
39394.3
39393.8
39393.3
39392.8
39392.2
39391.7
39391.2
39390.6
39390
39389.5
39388.9
39388.3
39387.7
39387.1
39386.5
39385.9
39385.3
39384.7
39384.1
39383.5
39382.8
39382.2
39381.6
39381
39380.3
39379.7
39379.1
39378.5
39377.8
39377.2
39376.6
39376
39375.4
39374.7
39374.1
39373.5
39372.9
39372.3
39371.8
39371.2
39370.6
39370
39369.5
39368.9
39368.4
39367.9
39367.3
39366.8
39366.3
39365.8
39365.4
39364.9
39364.5
39364
39363.6
39363.2
39362.8
39362.4
39362.1
39361.7
39361.4
39361.1
39360.8
39360.5
39360.2
39360
39359.8
39359.6
39359.4
39359.2
39359
39358.9
39358.8
39358.7
39358.6
39358.6
39358.5
39358.5
40021.7
40021.2
40020.2
40018.8
40016.8
40014.4
40011.5
40008.2
40004.4
40000.3
39995.7
39990.7
39985.3
39979.6
39973.6
39967.2
39960.5
39953.6
39946.5
39939.1
39931.5
39923.7
39915.7
39907.6
39899.4
39891.2
39882.8
39874.4
39865.9
39857.4
39848.9
39840.5
39832
39823.6
39815.3
39807
39798.8
39790.7
39782.6
39774.7
39766.9
39759.2
39751.7
39744.2
39736.9
39729.8
39722.8
39715.9
39709.1
39702.5
39696.1
39689.8
39683.6
39677.5
39671.6
39665.9
39660.2
39654.7
39649.4
39644.1
39639
39634
39629.2
39624.4
39619.8
39615.2
39610.8
39606.5
39602.3
39598.2
39594.2
39590.3
39586.5
39582.7
39579.1
39575.5
39572.1
39568.7
39565.4
39562.1
39559
39555.9
39552.9
39549.9
39547
39544.2
39541.5
39538.8
39536.2
39533.6
39531.1
39528.7
39526.3
39524
39521.7
39519.5
39517.3
39515.2
39513.1
39511.1
39509.1
39507.2
39505.3
39503.4
39501.6
39499.9
39498.1
39496.5
39494.8
39493.2
39491.7
39490.1
39488.6
39487.2
39485.8
39484.4
39483
39481.7
39480.4
39479.2
39477.9
39476.7
39475.5
39474.4
39473.3
39472.2
39471.1
39470.1
39469.1
39468.1
39467.1
39466.2
39465.3
39464.4
39463.5
39462.6
39461.8
39461
39460.2
39459.4
39458.7
39457.9
39457.2
39456.5
39455.8
39455.1
39454.5
39453.8
39453.2
39452.6
39452
39451.4
39450.8
39450.3
39449.8
39449.2
39448.7
39448.2
39447.7
39447.2
39446.8
39446.3
39445.9
39445.4
39445
39444.6
39444.2
39443.8
39443.4
39443
39442.6
39442.3
39441.9
39441.6
39441.2
39440.9
39440.6
39440.2
39439.9
39439.6
39439.3
39439
39438.8
39438.5
39438.2
39437.9
39437.7
39437.4
39437.2
39436.9
39436.7
39436.4
39436.2
39436
39435.8
39435.6
39435.3
39435.1
39434.9
39434.7
39434.5
39434.3
39434.1
39434
39433.8
39433.6
39433.4
39433.2
39433
39432.9
39432.7
39432.5
39432.4
39432.2
39432
39431.9
39431.7
39431.6
39431.4
39431.2
39431.1
39430.9
39430.8
39430.6
39430.5
39430.3
39430.2
39430
39429.9
39429.7
39429.6
39429.4
39429.2
39429.1
39428.9
39428.8
39428.6
39428.5
39428.3
39428.1
39428
39427.8
39427.7
39427.5
39427.3
39427.2
39427
39426.8
39426.6
39426.5
39426.3
39426.1
39425.9
39425.7
39425.6
39425.4
39425.2
39425
39424.8
39424.6
39424.4
39424.2
39424
39423.8
39423.6
39423.4
39423.2
39423
39422.8
39422.6
39422.3
39422.1
39421.9
39421.7
39421.5
39421.2
39421
39420.8
39420.6
39420.3
39420.1
39419.9
39419.6
39419.4
39419.2
39418.9
39418.7
39418.5
39418.2
39418
39417.8
39417.5
39417.3
39417
39416.8
39416.6
39416.3
39416.1
39415.9
39415.6
39415.4
39415.2
39414.9
39414.7
39414.5
39414.2
39414
39413.8
39413.6
39413.3
39413.1
39412.9
39412.7
39412.5
39412.2
39412
39411.8
39411.6
39411.4
39411.2
39411
39410.8
39410.6
39410.4
39410.2
39410
39409.9
39409.7
39409.5
39409.3
39409.1
39409
39408.8
39408.6
39408.5
39408.3
39408.2
39408
39407.9
39407.7
39407.6
39407.4
39407.3
39407.2
39407
39406.9
39406.8
39406.7
39406.5
39406.4
39406.3
39406.2
39406.1
39406
39405.8
39405.7
39405.6
39405.5
39405.4
39405.3
39405.2
39405.1
39405
39404.9
39404.8
39404.7
39404.6
39404.6
39404.5
39404.4
39404.3
39404.2
39404.1
39404
39403.9
39403.8
39403.7
39403.6
39403.4
39403.3
39403.2
39403.1
39403
39402.9
39402.7
39402.6
39402.5
39402.3
39402.2
39402.1
39401.9
39401.8
39401.6
39401.4
39401.3
39401.1
39400.9
39400.7
39400.5
39400.3
39400.1
39399.9
39399.7
39399.4
39399.2
39398.9
39398.7
39398.4
39398.2
39397.9
39397.6
39397.3
39397
39396.7
39396.3
39396
39395.7
39395.3
39395
39394.6
39394.2
39393.8
39393.4
39393
39392.6
39392.2
39391.8
39391.3
39390.9
39390.4
39389.9
39389.4
39389
39388.5
39388
39387.4
39386.9
39386.4
39385.9
39385.3
39384.8
39384.2
39383.6
39383.1
39382.5
39381.9
39381.3
39380.7
39380.1
39379.5
39378.9
39378.3
39377.7
39377.1
39376.5
39375.8
39375.2
39374.6
39374
39373.3
39372.7
39372.1
39371.5
39370.8
39370.2
39369.6
39369
39368.4
39367.8
39367.1
39366.5
39366
39365.4
39364.8
39364.2
39363.6
39363.1
39362.5
39362
39361.5
39361
39360.4
39359.9
39359.5
39359
39358.5
39358.1
39357.6
39357.2
39356.8
39356.4
39356
39355.7
39355.3
39355
39354.7
39354.4
39354.1
39353.8
39353.6
39353.4
39353.2
39353
39352.8
39352.6
39352.5
39352.4
39352.3
39352.2
39352.2
39352.1
39352.1
40012.8
40012.3
40011.3
40009.8
40007.9
40005.4
40002.6
39999.2
39995.4
39991.2
39986.6
39981.6
39976.2
39970.5
39964.4
39958
39951.3
39944.4
39937.2
39929.7
39922.1
39914.3
39906.3
39898.2
39889.9
39881.6
39873.2
39864.7
39856.2
39847.7
39839.2
39830.7
39822.2
39813.8
39805.4
39797.1
39788.9
39780.8
39772.7
39764.8
39757
39749.3
39741.7
39734.3
39727
39719.8
39712.8
39705.9
39699.1
39692.5
39686.1
39679.7
39673.6
39667.5
39661.6
39655.8
39650.2
39644.7
39639.4
39634.1
39629
39624
39619.2
39614.4
39609.8
39605.3
39600.9
39596.6
39592.4
39588.3
39584.3
39580.3
39576.5
39572.8
39569.2
39565.6
39562.2
39558.8
39555.5
39552.3
39549.1
39546
39543
39540.1
39537.2
39534.4
39531.7
39529
39526.4
39523.8
39521.3
39518.9
39516.5
39514.2
39511.9
39509.7
39507.5
39505.4
39503.4
39501.3
39499.4
39497.4
39495.5
39493.7
39491.9
39490.1
39488.4
39486.8
39485.1
39483.5
39482
39480.4
39479
39477.5
39476.1
39474.7
39473.4
39472
39470.7
39469.5
39468.3
39467.1
39465.9
39464.8
39463.6
39462.6
39461.5
39460.5
39459.4
39458.5
39457.5
39456.6
39455.6
39454.7
39453.9
39453
39452.2
39451.4
39450.6
39449.8
39449
39448.3
39447.6
39446.9
39446.2
39445.5
39444.9
39444.2
39443.6
39443
39442.4
39441.8
39441.3
39440.7
39440.2
39439.6
39439.1
39438.6
39438.1
39437.6
39437.2
39436.7
39436.3
39435.8
39435.4
39435
39434.6
39434.2
39433.8
39433.4
39433
39432.7
39432.3
39432
39431.6
39431.3
39431
39430.7
39430.4
39430
39429.8
39429.5
39429.2
39428.9
39428.6
39428.4
39428.1
39427.8
39427.6
39427.4
39427.1
39426.9
39426.6
39426.4
39426.2
39426
39425.8
39425.6
39425.4
39425.2
39425
39424.8
39424.6
39424.4
39424.2
39424
39423.8
39423.7
39423.5
39423.3
39423.1
39423
39422.8
39422.6
39422.5
39422.3
39422.2
39422
39421.8
39421.7
39421.5
39421.4
39421.2
39421.1
39420.9
39420.7
39420.6
39420.4
39420.3
39420.1
39420
39419.8
39419.7
39419.5
39419.4
39419.2
39419
39418.9
39418.7
39418.6
39418.4
39418.2
39418.1
39417.9
39417.8
39417.6
39417.4
39417.2
39417.1
39416.9
39416.7
39416.5
39416.4
39416.2
39416
39415.8
39415.6
39415.4
39415.2
39415
39414.8
39414.6
39414.4
39414.2
39414
39413.8
39413.6
39413.4
39413.2
39413
39412.8
39412.6
39412.3
39412.1
39411.9
39411.7
39411.5
39411.2
39411
39410.8
39410.5
39410.3
39410.1
39409.9
39409.6
39409.4
39409.1
39408.9
39408.7
39408.4
39408.2
39408
39407.7
39407.5
39407.3
39407
39406.8
39406.5
39406.3
39406.1
39405.8
39405.6
39405.4
39405.1
39404.9
39404.7
39404.5
39404.2
39404
39403.8
39403.6
39403.3
39403.1
39402.9
39402.7
39402.5
39402.3
39402.1
39401.9
39401.7
39401.5
39401.3
39401.1
39400.9
39400.7
39400.5
39400.3
39400.1
39400
39399.8
39399.6
39399.4
39399.3
39399.1
39398.9
39398.8
39398.6
39398.5
39398.3
39398.2
39398
39397.9
39397.8
39397.6
39397.5
39397.4
39397.2
39397.1
39397
39396.9
39396.8
39396.6
39396.5
39396.4
39396.3
39396.2
39396.1
39396
39395.9
39395.8
39395.7
39395.6
39395.5
39395.4
39395.3
39395.2
39395.1
39395
39394.9
39394.8
39394.7
39394.6
39394.5
39394.4
39394.3
39394.2
39394.1
39394
39393.9
39393.8
39393.7
39393.6
39393.4
39393.3
39393.2
39393.1
39392.9
39392.8
39392.7
39392.5
39392.4
39392.2
39392
39391.9
39391.7
39391.5
39391.3
39391.2
39391
39390.8
39390.5
39390.3
39390.1
39389.9
39389.6
39389.4
39389.1
39388.9
39388.6
39388.3
39388
39387.7
39387.4
39387.1
39386.8
39386.5
39386.1
39385.8
39385.4
39385
39384.7
39384.3
39383.9
39383.5
39383.1
39382.6
39382.2
39381.8
39381.3
39380.9
39380.4
39379.9
39379.4
39378.9
39378.4
39377.9
39377.4
39376.9
39376.3
39375.8
39375.2
39374.7
39374.1
39373.5
39372.9
39372.4
39371.8
39371.2
39370.6
39370
39369.4
39368.8
39368.1
39367.5
39366.9
39366.3
39365.7
39365
39364.4
39363.8
39363.2
39362.5
39361.9
39361.3
39360.7
39360
39359.4
39358.8
39358.2
39357.6
39357
39356.4
39355.8
39355.2
39354.7
39354.1
39353.5
39353
39352.4
39351.9
39351.4
39350.9
39350.4
39349.9
39349.4
39349
39348.5
39348.1
39347.7
39347.3
39346.9
39346.5
39346.1
39345.8
39345.4
39345.1
39344.8
39344.5
39344.3
39344
39343.8
39343.6
39343.4
39343.2
39343.1
39342.9
39342.8
39342.7
39342.7
39342.6
39342.6
39342.5
40000.9
40000.4
39999.4
39997.9
39996
39993.5
39990.6
39987.3
39983.4
39979.2
39974.6
39969.5
39964.1
39958.3
39952.2
39945.8
39939
39932
39924.8
39917.3
39909.6
39901.7
39893.7
39885.5
39877.3
39868.9
39860.4
39851.9
39843.4
39834.8
39826.3
39817.7
39809.2
39800.8
39792.4
39784
39775.8
39767.6
39759.5
39751.6
39743.8
39736
39728.4
39721
39713.7
39706.5
39699.4
39692.5
39685.8
39679.2
39672.7
39666.4
39660.2
39654.2
39648.3
39642.5
39636.9
39631.4
39626
39620.8
39615.7
39610.7
39605.9
39601.1
39596.5
39592
39587.6
39583.3
39579.1
39575
39571
39567.1
39563.3
39559.6
39556
39552.4
39549
39545.6
39542.3
39539.1
39536
39532.9
39529.9
39527
39524.1
39521.3
39518.6
39515.9
39513.3
39510.8
39508.3
39505.9
39503.5
39501.2
39498.9
39496.7
39494.5
39492.4
39490.4
39488.4
39486.4
39484.5
39482.6
39480.8
39479
39477.2
39475.5
39473.8
39472.2
39470.6
39469.1
39467.5
39466.1
39464.6
39463.2
39461.8
39460.5
39459.2
39457.9
39456.6
39455.4
39454.2
39453
39451.9
39450.8
39449.7
39448.7
39447.6
39446.6
39445.6
39444.7
39443.7
39442.8
39441.9
39441
39440.2
39439.4
39438.6
39437.8
39437
39436.2
39435.5
39434.8
39434.1
39433.4
39432.7
39432.1
39431.4
39430.8
39430.2
39429.6
39429
39428.5
39427.9
39427.4
39426.9
39426.3
39425.8
39425.4
39424.9
39424.4
39424
39423.5
39423.1
39422.6
39422.2
39421.8
39421.4
39421
39420.7
39420.3
39419.9
39419.6
39419.2
39418.9
39418.6
39418.2
39417.9
39417.6
39417.3
39417
39416.7
39416.4
39416.2
39415.9
39415.6
39415.4
39415.1
39414.9
39414.6
39414.4
39414.1
39413.9
39413.7
39413.5
39413.2
39413
39412.8
39412.6
39412.4
39412.2
39412
39411.8
39411.6
39411.5
39411.3
39411.1
39410.9
39410.7
39410.6
39410.4
39410.2
39410.1
39409.9
39409.7
39409.6
39409.4
39409.3
39409.1
39408.9
39408.8
39408.6
39408.5
39408.3
39408.2
39408
39407.9
39407.7
39407.6
39407.4
39407.2
39407.1
39406.9
39406.8
39406.6
39406.5
39406.3
39406.2
39406
39405.8
39405.7
39405.5
39405.3
39405.2
39405
39404.8
39404.7
39404.5
39404.3
39404.2
39404
39403.8
39403.6
39403.4
39403.3
39403.1
39402.9
39402.7
39402.5
39402.3
39402.1
39401.9
39401.7
39401.5
39401.3
39401.1
39400.9
39400.7
39400.5
39400.3
39400.1
39399.8
39399.6
39399.4
39399.2
39399
39398.7
39398.5
39398.3
39398.1
39397.8
39397.6
39397.4
39397.1
39396.9
39396.7
39396.4
39396.2
39396
39395.7
39395.5
39395.3
39395
39394.8
39394.5
39394.3
39394.1
39393.8
39393.6
39393.4
39393.1
39392.9
39392.7
39392.4
39392.2
39392
39391.8
39391.5
39391.3
39391.1
39390.9
39390.6
39390.4
39390.2
39390
39389.8
39389.6
39389.4
39389.2
39389
39388.8
39388.6
39388.4
39388.2
39388
39387.8
39387.6
39387.4
39387.3
39387.1
39386.9
39386.7
39386.6
39386.4
39386.2
39386.1
39385.9
39385.8
39385.6
39385.5
39385.3
39385.2
39385.1
39384.9
39384.8
39384.7
39384.5
39384.4
39384.3
39384.2
39384.1
39383.9
39383.8
39383.7
39383.6
39383.5
39383.4
39383.3
39383.2
39383.1
39383
39382.9
39382.8
39382.7
39382.6
39382.5
39382.4
39382.3
39382.2
39382.1
39382
39381.9
39381.8
39381.7
39381.6
39381.5
39381.4
39381.3
39381.2
39381.1
39381
39380.9
39380.7
39380.6
39380.5
39380.4
39380.2
39380.1
39379.9
39379.8
39379.7
39379.5
39379.3
39379.2
39379
39378.8
39378.6
39378.4
39378.3
39378
39377.8
39377.6
39377.4
39377.2
39376.9
39376.7
39376.4
39376.2
39375.9
39375.6
39375.3
39375
39374.7
39374.4
39374.1
39373.8
39373.4
39373.1
39372.7
39372.3
39372
39371.6
39371.2
39370.8
39370.4
39369.9
39369.5
39369.1
39368.6
39368.1
39367.7
39367.2
39366.7
39366.2
39365.7
39365.2
39364.7
39364.1
39363.6
39363.1
39362.5
39362
39361.4
39360.8
39360.2
39359.7
39359.1
39358.5
39357.9
39357.3
39356.7
39356.1
39355.4
39354.8
39354.2
39353.6
39353
39352.3
39351.7
39351.1
39350.4
39349.8
39349.2
39348.6
39347.9
39347.3
39346.7
39346.1
39345.5
39344.9
39344.3
39343.7
39343.1
39342.5
39341.9
39341.4
39340.8
39340.3
39339.7
39339.2
39338.7
39338.2
39337.7
39337.2
39336.7
39336.2
39335.8
39335.4
39334.9
39334.5
39334.1
39333.8
39333.4
39333
39332.7
39332.4
39332.1
39331.8
39331.6
39331.3
39331.1
39330.9
39330.7
39330.5
39330.4
39330.2
39330.1
39330
39329.9
39329.9
39329.8
39329.8
39986.1
39985.6
39984.6
39983.1
39981.2
39978.7
39975.7
39972.4
39968.5
39964.2
39959.5
39954.4
39949
39943.1
39937
39930.5
39923.7
39916.6
39909.3
39901.8
39894
39886.1
39878
39869.8
39861.5
39853
39844.5
39836
39827.4
39818.8
39810.2
39801.6
39793
39784.5
39776.1
39767.7
39759.4
39751.2
39743.1
39735.1
39727.3
39719.5
39711.9
39704.4
39697.1
39689.9
39682.8
39675.9
39669.2
39662.6
39656.1
39649.8
39643.6
39637.5
39631.6
39625.9
39620.3
39614.8
39609.4
39604.2
39599.1
39594.1
39589.3
39584.6
39579.9
39575.4
39571.1
39566.8
39562.6
39558.5
39554.5
39550.6
39546.9
39543.2
39539.5
39536
39532.6
39529.2
39525.9
39522.7
39519.6
39516.6
39513.6
39510.7
39507.8
39505
39502.3
39499.7
39497.1
39494.5
39492.1
39489.6
39487.3
39485
39482.7
39480.5
39478.4
39476.3
39474.2
39472.2
39470.2
39468.3
39466.5
39464.6
39462.8
39461.1
39459.4
39457.7
39456.1
39454.5
39453
39451.5
39450
39448.6
39447.2
39445.8
39444.4
39443.1
39441.9
39440.6
39439.4
39438.2
39437
39435.9
39434.8
39433.7
39432.7
39431.6
39430.6
39429.6
39428.7
39427.8
39426.8
39426
39425.1
39424.2
39423.4
39422.6
39421.8
39421
39420.3
39419.6
39418.8
39418.1
39417.5
39416.8
39416.2
39415.5
39414.9
39414.3
39413.7
39413.1
39412.6
39412
39411.5
39411
39410.4
39409.9
39409.4
39409
39408.5
39408.1
39407.6
39407.2
39406.7
39406.3
39405.9
39405.5
39405.1
39404.8
39404.4
39404
39403.7
39403.3
39403
39402.7
39402.3
39402
39401.7
39401.4
39401.1
39400.8
39400.6
39400.3
39400
39399.7
39399.5
39399.2
39399
39398.7
39398.5
39398.3
39398
39397.8
39397.6
39397.4
39397.2
39396.9
39396.7
39396.5
39396.3
39396.1
39396
39395.8
39395.6
39395.4
39395.2
39395
39394.9
39394.7
39394.5
39394.4
39394.2
39394
39393.9
39393.7
39393.5
39393.4
39393.2
39393.1
39392.9
39392.8
39392.6
39392.4
39392.3
39392.1
39392
39391.8
39391.7
39391.5
39391.4
39391.2
39391.1
39390.9
39390.8
39390.6
39390.4
39390.3
39390.1
39390
39389.8
39389.6
39389.5
39389.3
39389.1
39389
39388.8
39388.6
39388.5
39388.3
39388.1
39387.9
39387.8
39387.6
39387.4
39387.2
39387
39386.8
39386.6
39386.5
39386.3
39386.1
39385.9
39385.7
39385.5
39385.3
39385
39384.8
39384.6
39384.4
39384.2
39384
39383.8
39383.6
39383.3
39383.1
39382.9
39382.7
39382.4
39382.2
39382
39381.8
39381.5
39381.3
39381.1
39380.8
39380.6
39380.4
39380.1
39379.9
39379.7
39379.4
39379.2
39378.9
39378.7
39378.5
39378.2
39378
39377.8
39377.5
39377.3
39377.1
39376.8
39376.6
39376.4
39376.2
39375.9
39375.7
39375.5
39375.3
39375
39374.8
39374.6
39374.4
39374.2
39374
39373.8
39373.5
39373.3
39373.1
39372.9
39372.7
39372.5
39372.4
39372.2
39372
39371.8
39371.6
39371.4
39371.3
39371.1
39370.9
39370.8
39370.6
39370.4
39370.3
39370.1
39370
39369.8
39369.7
39369.5
39369.4
39369.2
39369.1
39369
39368.8
39368.7
39368.6
39368.5
39368.3
39368.2
39368.1
39368
39367.9
39367.8
39367.7
39367.6
39367.5
39367.4
39367.3
39367.2
39367.1
39367
39366.9
39366.8
39366.7
39366.6
39366.5
39366.4
39366.3
39366.2
39366.1
39366
39365.9
39365.8
39365.7
39365.6
39365.5
39365.4
39365.2
39365.1
39365
39364.9
39364.8
39364.7
39364.5
39364.4
39364.3
39364.1
39364
39363.8
39363.7
39363.5
39363.3
39363.2
39363
39362.8
39362.6
39362.4
39362.2
39362
39361.8
39361.6
39361.3
39361.1
39360.8
39360.6
39360.3
39360.1
39359.8
39359.5
39359.2
39358.9
39358.6
39358.3
39357.9
39357.6
39357.2
39356.9
39356.5
39356.1
39355.7
39355.3
39354.9
39354.5
39354.1
39353.7
39353.2
39352.8
39352.3
39351.8
39351.4
39350.9
39350.4
39349.9
39349.4
39348.8
39348.3
39347.8
39347.2
39346.7
39346.1
39345.6
39345
39344.4
39343.8
39343.2
39342.6
39342
39341.4
39340.8
39340.2
39339.6
39339
39338.4
39337.7
39337.1
39336.5
39335.9
39335.2
39334.6
39334
39333.4
39332.7
39332.1
39331.5
39330.9
39330.3
39329.6
39329
39328.4
39327.8
39327.3
39326.7
39326.1
39325.5
39325
39324.4
39323.9
39323.4
39322.8
39322.3
39321.8
39321.3
39320.9
39320.4
39319.9
39319.5
39319.1
39318.7
39318.3
39317.9
39317.5
39317.2
39316.9
39316.5
39316.2
39316
39315.7
39315.5
39315.2
39315
39314.8
39314.7
39314.5
39314.4
39314.2
39314.2
39314.1
39314
39314
39314
39968.4
39967.9
39966.9
39965.4
39963.4
39960.9
39957.9
39954.5
39950.6
39946.3
39941.6
39936.4
39930.9
39925
39918.8
39912.2
39905.3
39898.2
39890.8
39883.2
39875.4
39867.4
39859.3
39851
39842.5
39834
39825.5
39816.8
39808.2
39799.5
39790.9
39782.2
39773.6
39765
39756.5
39748.1
39739.8
39731.5
39723.4
39715.4
39707.5
39699.7
39692.1
39684.6
39677.2
39670
39662.9
39656
39649.2
39642.6
39636.1
39629.8
39623.6
39617.6
39611.7
39605.9
39600.3
39594.8
39589.5
39584.3
39579.2
39574.2
39569.4
39564.7
39560.1
39555.6
39551.2
39547
39542.8
39538.7
39534.8
39530.9
39527.1
39523.4
39519.8
39516.3
39512.9
39509.6
39506.3
39503.1
39500
39497
39494
39491.1
39488.3
39485.5
39482.8
39480.2
39477.6
39475.1
39472.6
39470.2
39467.8
39465.5
39463.3
39461.1
39459
39456.9
39454.8
39452.8
39450.9
39449
39447.1
39445.3
39443.5
39441.8
39440.1
39438.5
39436.8
39435.3
39433.7
39432.2
39430.8
39429.3
39427.9
39426.6
39425.2
39423.9
39422.6
39421.4
39420.2
39419
39417.9
39416.7
39415.6
39414.5
39413.5
39412.5
39411.5
39410.5
39409.5
39408.6
39407.7
39406.8
39406
39405.1
39404.3
39403.5
39402.7
39401.9
39401.2
39400.5
39399.7
39399.1
39398.4
39397.7
39397.1
39396.4
39395.8
39395.2
39394.6
39394.1
39393.5
39392.9
39392.4
39391.9
39391.4
39390.9
39390.4
39389.9
39389.5
39389
39388.6
39388.1
39387.7
39387.3
39386.9
39386.5
39386.1
39385.7
39385.4
39385
39384.6
39384.3
39384
39383.6
39383.3
39383
39382.7
39382.4
39382.1
39381.8
39381.5
39381.3
39381
39380.7
39380.5
39380.2
39380
39379.7
39379.5
39379.2
39379
39378.8
39378.6
39378.4
39378.1
39377.9
39377.7
39377.5
39377.3
39377.1
39376.9
39376.8
39376.6
39376.4
39376.2
39376
39375.9
39375.7
39375.5
39375.3
39375.2
39375
39374.8
39374.7
39374.5
39374.4
39374.2
39374.1
39373.9
39373.7
39373.6
39373.4
39373.3
39373.1
39373
39372.8
39372.7
39372.5
39372.4
39372.2
39372
39371.9
39371.7
39371.6
39371.4
39371.3
39371.1
39371
39370.8
39370.6
39370.5
39370.3
39370.1
39370
39369.8
39369.6
39369.5
39369.3
39369.1
39368.9
39368.8
39368.6
39368.4
39368.2
39368
39367.8
39367.6
39367.4
39367.3
39367.1
39366.9
39366.7
39366.5
39366.3
39366.1
39365.8
39365.6
39365.4
39365.2
39365
39364.8
39364.6
39364.3
39364.1
39363.9
39363.7
39363.5
39363.2
39363
39362.8
39362.5
39362.3
39362.1
39361.8
39361.6
39361.4
39361.1
39360.9
39360.7
39360.4
39360.2
39360
39359.7
39359.5
39359.3
39359
39358.8
39358.6
39358.3
39358.1
39357.9
39357.7
39357.4
39357.2
39357
39356.7
39356.5
39356.3
39356.1
39355.9
39355.6
39355.4
39355.2
39355
39354.8
39354.6
39354.4
39354.2
39354
39353.8
39353.6
39353.4
39353.2
39353
39352.8
39352.7
39352.5
39352.3
39352.1
39352
39351.8
39351.6
39351.5
39351.3
39351.2
39351
39350.9
39350.7
39350.6
39350.4
39350.3
39350.2
39350
39349.9
39349.8
39349.6
39349.5
39349.4
39349.3
39349.2
39349
39348.9
39348.8
39348.7
39348.6
39348.5
39348.4
39348.3
39348.2
39348.1
39348
39347.9
39347.8
39347.7
39347.6
39347.5
39347.4
39347.3
39347.2
39347.1
39347
39346.9
39346.8
39346.7
39346.6
39346.5
39346.4
39346.3
39346.2
39346
39345.9
39345.8
39345.7
39345.6
39345.4
39345.3
39345.1
39345
39344.8
39344.7
39344.5
39344.4
39344.2
39344
39343.8
39343.6
39343.4
39343.2
39343
39342.8
39342.6
39342.4
39342.1
39341.9
39341.6
39341.4
39341.1
39340.8
39340.5
39340.2
39339.9
39339.6
39339.3
39338.9
39338.6
39338.3
39337.9
39337.5
39337.2
39336.8
39336.4
39336
39335.5
39335.1
39334.7
39334.3
39333.8
39333.3
39332.9
39332.4
39331.9
39331.4
39330.9
39330.4
39329.9
39329.3
39328.8
39328.3
39327.7
39327.2
39326.6
39326
39325.4
39324.9
39324.3
39323.7
39323.1
39322.5
39321.9
39321.3
39320.6
39320
39319.4
39318.8
39318.1
39317.5
39316.9
39316.3
39315.6
39315
39314.4
39313.8
39313.1
39312.5
39311.9
39311.3
39310.7
39310.1
39309.5
39308.9
39308.3
39307.7
39307.1
39306.6
39306
39305.4
39304.9
39304.4
39303.8
39303.3
39302.8
39302.3
39301.9
39301.4
39301
39300.5
39300.1
39299.7
39299.3
39298.9
39298.5
39298.2
39297.9
39297.6
39297.3
39297
39296.7
39296.5
39296.2
39296
39295.8
39295.7
39295.5
39295.4
39295.3
39295.2
39295.1
39295
39295
39295
39947.8
39947.3
39946.3
39944.8
39942.8
39940.2
39937.2
39933.7
39929.8
39925.4
39920.6
39915.4
39909.8
39903.9
39897.6
39890.9
39884
39876.8
39869.3
39861.6
39853.7
39845.6
39837.4
39829
39820.5
39811.9
39803.3
39794.6
39785.9
39777.1
39768.4
39759.7
39751
39742.4
39733.8
39725.3
39716.9
39708.7
39700.5
39692.4
39684.5
39676.7
39669
39661.5
39654.1
39646.9
39639.8
39632.9
39626.1
39619.4
39613
39606.6
39600.4
39594.4
39588.5
39582.8
39577.1
39571.7
39566.3
39561.1
39556.1
39551.1
39546.3
39541.6
39537
39532.5
39528.2
39523.9
39519.8
39515.7
39511.8
39507.9
39504.2
39500.5
39496.9
39493.4
39490
39486.7
39483.5
39480.3
39477.2
39474.2
39471.2
39468.3
39465.5
39462.8
39460.1
39457.5
39454.9
39452.4
39450
39447.6
39445.2
39442.9
39440.7
39438.5
39436.4
39434.3
39432.3
39430.3
39428.4
39426.5
39424.6
39422.8
39421.1
39419.4
39417.7
39416
39414.4
39412.9
39411.3
39409.8
39408.4
39406.9
39405.6
39404.2
39402.9
39401.6
39400.3
39399.1
39397.9
39396.7
39395.5
39394.4
39393.3
39392.3
39391.2
39390.2
39389.2
39388.2
39387.3
39386.4
39385.5
39384.6
39383.7
39382.9
39382.1
39381.3
39380.5
39379.7
39379
39378.3
39377.5
39376.9
39376.2
39375.5
39374.9
39374.2
39373.6
39373
39372.4
39371.9
39371.3