/*--------------------------------*- C++ -*----------------------------------*\
| =========                 |                                                 |
| \\      /  F ield         | OpenFOAM: The Open Source CFD Toolbox           |
|  \\    /   O peration     | Version:  v2012                                 |
|   \\  /    A nd           | Website:  www.openfoam.com                      |
|    \\/     M anipulation  |                                                 |
\*---------------------------------------------------------------------------*/
FoamFile
{
    version     2.0;
    format      ascii;
    class       surfaceScalarField;
    location    "100";
    object      phi;
}
// * * * * * * * * * * * * * * * * * * * * * * * * * * * * * * * * * * * * * //

dimensions      [1 0 -1 0 0 0 0];
oriented        oriented;


internalField   nonuniform List<scalar> 
130432
(
22.9634
-23.175
45.9769
-23.0759
68.9053
-22.9906
91.6886
-22.8448
114.298
-22.6699
136.686
-22.4481
158.816
-22.1892
180.646
-21.8877
202.139
-21.5488
223.255
-21.1707
243.96
-20.757
264.216
-20.3075
283.993
-19.8253
303.257
-19.311
321.98
-18.7675
340.133
-18.1959
357.692
-17.599
374.633
-16.9784
390.934
-16.3365
406.577
-15.6753
421.544
-14.9973
435.821
-14.3045
449.395
-13.5993
462.256
-12.8838
474.396
-12.1603
485.809
-11.4309
496.492
-10.6979
506.442
-9.96324
515.661
-9.22909
524.149
-8.4972
531.913
-7.76971
538.956
-7.0482
545.289
-6.3346
550.919
-5.63035
555.857
-4.93717
560.117
-4.25632
563.711
-3.58929
566.654
-2.93718
568.963
-2.30125
570.654
-1.68239
571.746
-1.08164
572.258
-0.499711
572.208
0.0625874
571.616
0.604726
570.505
1.12611
568.893
1.6264
566.804
2.10519
564.258
2.5623
561.278
2.99752
557.885
3.41082
554.101
3.80217
549.948
4.17167
545.447
4.51942
540.62
4.84567
535.489
5.15065
530.074
5.4347
524.395
5.69817
518.473
5.94148
512.328
6.16507
505.978
6.36945
499.443
6.55512
492.739
6.72265
485.886
6.8726
478.9
7.00558
471.797
7.12219
464.593
7.22306
457.304
7.30883
449.942
7.38014
442.523
7.43764
435.06
7.48198
427.564
7.51381
420.049
7.53378
412.524
7.54251
405.001
7.54065
397.49
7.52882
389.999
7.50762
382.539
7.47766
375.116
7.43952
367.739
7.39377
360.415
7.34095
353.149
7.28161
345.949
7.21625
338.82
7.14539
331.766
7.06949
324.793
6.98901
317.904
6.9044
311.103
6.81608
304.394
6.72444
297.779
6.62986
291.261
6.53271
284.842
6.43333
278.525
6.33203
272.31
6.22913
266.2
6.1249
260.194
6.01962
254.295
5.91353
248.502
5.80688
242.816
5.69987
237.238
5.59271
231.766
5.48559
226.401
5.37867
221.143
5.27213
215.99
5.1661
210.943
5.06072
206.001
4.95612
201.162
4.85239
196.425
4.74965
191.791
4.64799
187.257
4.54748
182.822
4.44819
178.485
4.35021
174.245
4.25357
170.1
4.15833
166.048
4.06453
162.089
3.97221
158.221
3.88139
154.442
3.79211
150.751
3.70439
147.146
3.61823
143.625
3.53366
140.188
3.45067
136.831
3.36928
133.555
3.28947
130.357
3.21126
127.235
3.13463
124.188
3.05958
121.215
2.9861
118.314
2.91417
115.483
2.84378
112.721
2.77492
110.026
2.70757
107.397
2.6417
104.833
2.57731
102.331
2.51438
99.891
2.45287
97.5109
2.39277
95.1895
2.33406
92.9254
2.27671
90.7172
2.2207
88.5637
2.16601
86.4636
2.1126
84.4156
2.06047
82.4184
2.00958
80.4708
1.95991
78.5717
1.91144
76.7198
1.86413
74.914
1.81797
73.1532
1.77294
71.4363
1.729
69.7622
1.68614
68.1298
1.64432
66.5382
1.60354
64.9863
1.56376
63.4731
1.52496
61.9977
1.48712
60.5592
1.45022
59.1565
1.41423
57.7889
1.37914
56.4555
1.34492
55.1553
1.31156
53.8876
1.27902
52.6515
1.2473
51.4463
1.21637
50.2712
1.18621
49.1255
1.1568
48.0083
1.12814
46.919
1.10018
45.8568
1.07293
44.8212
1.04636
43.8114
1.02046
42.8267
0.995206
41.8666
0.970584
40.9304
0.946578
40.0175
0.923173
39.1273
0.900354
38.2593
0.878106
37.4129
0.856415
36.5876
0.835265
35.7828
0.814644
34.9979
0.794538
34.2326
0.774934
33.4863
0.755818
32.7585
0.737179
32.0488
0.719004
31.3567
0.70128
30.6817
0.683997
30.0235
0.667142
29.3816
0.650706
28.7556
0.634676
28.145
0.619042
27.5496
0.603795
26.9689
0.588923
26.4025
0.574418
25.8501
0.560269
25.3114
0.546467
24.786
0.533004
24.2735
0.51987
23.7736
0.507057
23.286
0.494556
22.8105
0.482359
22.3466
0.470458
21.8941
0.458846
21.4527
0.447514
21.0221
0.436457
20.6021
0.425665
20.1924
0.415133
19.7927
0.404853
19.4027
0.39482
19.0223
0.385026
18.6511
0.375465
18.2889
0.366132
17.9356
0.35702
17.5908
0.348123
17.2544
0.339437
16.9262
0.330955
16.6058
0.322673
16.2932
0.314584
15.9881
0.306685
15.6904
0.29897
15.3997
0.291435
15.1161
0.284075
14.8392
0.276886
14.5689
0.269863
14.3051
0.263003
14.0475
0.256301
13.796
0.249752
13.5504
0.243355
13.3106
0.237104
13.0764
0.230996
12.8478
0.225029
12.6244
0.219197
12.4063
0.213499
12.1932
0.207931
11.985
0.202489
11.7816
0.197172
11.5829
0.191976
11.3887
0.186898
11.1989
0.181936
11.0134
0.177087
10.8322
0.172348
10.655
0.167718
10.4817
0.163194
10.3123
0.158773
10.1467
0.154453
9.98474
0.150233
9.82633
0.146109
9.67139
0.142081
9.51982
0.138146
9.37153
0.134303
9.22644
0.130549
9.08446
0.126882
8.94551
0.123302
8.80951
0.119806
8.67638
0.116393
8.54605
0.113061
8.41846
0.109809
8.29352
0.106635
8.17116
0.103538
8.05134
0.100516
7.93397
0.0975687
7.81901
0.0946939
7.70638
0.0918906
7.59604
0.0891574
7.48793
0.0864933
7.382
0.083897
7.27819
0.0813673
7.17646
0.078903
7.07676
0.0765032
6.97904
0.0741665
6.88326
0.071892
6.78939
0.0696785
6.69737
0.0675251
6.60717
0.0654307
6.51876
0.0633942
6.43209
0.0614147
6.34715
0.0594911
6.26389
0.0576225
6.18228
0.0558078
6.1023
0.0540462
6.02391
0.0523366
5.9471
0.050678
5.87184
0.0490696
5.7981
0.0475103
5.72587
0.0459993
5.65511
0.0445355
5.58582
0.0431181
5.51797
0.0417461
5.45155
0.0404187
5.38654
0.0391347
5.32292
0.0378935
5.26068
0.0366939
5.19981
0.0355351
5.14029
0.0344162
5.08212
0.0333363
5.02527
0.0322944
4.96975
0.0312896
4.91554
0.0303211
4.86263
0.0293878
4.81102
0.028489
4.7607
0.0276237
4.71165
0.026791
4.66388
0.0259899
4.61738
0.0252197
4.57214
0.0244794
4.52816
0.0237681
4.48543
0.023085
4.44395
0.0224292
4.4037
0.0217997
4.3647
0.0211958
4.32693
0.0206166
4.2904
0.0200613
4.25508
0.0195289
4.221
0.0190187
4.18813
0.0185298
4.15647
0.0180614
4.12603
0.0176128
4.0968
0.0171831
4.06877
0.0167715
4.04194
0.0163773
4.0163
0.0159998
3.99186
0.015638
3.9686
0.0152914
3.94652
0.0149592
3.92562
0.0146407
3.90589
0.0143352
3.88732
0.014042
3.86991
0.0137604
3.85365
0.0134899
3.83853
0.0132297
3.82455
0.0129793
3.81169
0.012738
3.79996
0.0125053
3.78933
0.0122805
3.77981
0.0120633
3.77137
0.0118529
3.76401
0.0116489
3.75772
0.0114508
3.75249
0.0112581
3.7483
0.0110704
3.74513
0.0108871
3.74299
0.010708
3.74184
0.0105324
3.74167
0.0103602
3.74248
0.0101908
3.74424
0.010024
3.74693
0.00985933
3.75054
0.00969657
3.75505
0.00953538
3.76043
0.00937548
3.76667
0.0092166
3.77375
0.0090585
3.78165
0.00890095
3.79034
0.00874373
3.79979
0.00858666
3.81
0.00842956
3.82092
0.00827227
3.83254
0.00811465
3.84483
0.00795658
3.85776
0.00779796
3.87131
0.00763869
3.88545
0.00747871
3.90015
0.00731797
3.91538
0.00715643
3.93111
0.00699407
3.94732
0.00683089
3.96396
0.0066669
3.98102
0.00650214
3.99845
0.00633666
4.01623
0.00617052
4.03432
0.00600379
4.05269
0.00583658
4.07131
0.00566898
4.09014
0.00550114
4.10916
0.00533319
4.12832
0.00516527
4.14759
0.00499756
4.16694
0.00483025
4.18633
0.00466351
4.20573
0.00449757
4.22511
0.00433264
4.24443
0.00416894
4.26364
0.00400673
4.28274
0.00384624
4.30166
0.00368775
4.32039
0.00353152
4.33889
0.00337782
4.35712
0.00322695
4.37505
0.0030792
4.39265
0.00293487
4.40989
0.00279425
4.42673
0.00265766
4.44315
0.00252541
4.4591
0.00239781
4.47457
0.00227518
4.48952
0.00215783
4.50392
0.00204609
4.51775
0.00194027
4.53097
0.00184067
4.54356
0.00174762
4.55549
0.00166142
4.56675
0.00158236
4.5773
0.00151075
4.58711
0.00144687
4.59618
0.00139101
4.60448
0.00134344
4.61197
0.00130443
4.61866
0.00127421
4.62452
0.00125305
4.62952
0.00124116
4.63366
0.00123876
4.63692
0.00124607
4.63928
0.00126326
4.64073
0.00129052
4.64126
0.001328
4.64085
0.00137585
4.6395
0.0014342
4.6372
0.00150316
4.63393
0.00158282
4.62969
0.00167326
4.62448
0.00177454
4.61828
0.0018867
4.61109
0.00200977
4.60291
0.00214375
4.59374
0.00228863
4.58356
0.00244439
4.57238
0.00261097
4.5602
0.00278831
4.54702
0.00297634
4.53283
0.00317494
4.51763
0.003384
4.50143
0.0036034
4.48423
0.00383299
4.46602
0.00407259
4.44682
0.00432204
4.42661
0.00458114
4.40541
0.00484968
4.38321
0.00512744
4.36001
0.00541419
4.33583
0.00570968
4.31065
0.00601366
4.28449
0.00632585
4.25734
0.00664598
4.2292
0.00697376
4.20008
0.00730888
4.16998
0.00765105
4.1389
0.00799994
4.10684
0.00835523
4.0738
0.0087166
4.03978
0.00908369
4.00478
0.00945619
3.96879
0.00983372
3.93183
0.0102159
3.89389
0.0106025
3.85496
0.010993
3.81505
0.0113872
3.77414
0.0117845
3.73225
0.0121847
3.68937
0.0125874
3.64549
0.0129923
3.60062
0.0133988
3.55474
0.0138067
3.50787
0.0142155
3.45998
0.0146249
3.41109
0.0150345
3.36118
0.0154439
3.31027
0.0158527
3.25833
0.0162606
3.20538
0.016667
3.1514
0.0170718
3.09641
0.0174743
3.04039
0.0178744
2.98335
0.0182715
2.92529
0.0186653
2.86621
0.0190554
2.80611
0.0194414
2.745
0.0198229
2.68287
0.0201997
2.61974
0.0205711
2.55562
0.020937
2.4905
0.0212969
2.42439
0.0216505
2.35731
0.0219973
2.28927
0.0223371
2.22028
0.0226694
2.15036
0.022994
2.07951
0.0233104
2.00776
0.0236184
1.93513
0.0239175
1.86163
0.0242075
1.78728
0.024488
1.71212
0.0247588
1.63616
0.0250194
1.55943
0.0252698
1.48196
0.0255094
1.40377
0.0257382
1.3249
0.0259556
1.24538
0.0261618
1.16524
0.026356
1.08452
0.0265387
1.00325
0.0267087
0.921475
0.0268668
0.839226
0.0270118
0.756545
0.0271446
0.673473
0.0272637
0.590052
0.0273699
0.506322
0.0274627
0.42233
0.0275401
0.338117
0.0276066
0.253736
0.0276485
0.169218
0.0276939
0.0846548
0.02768
0.0277679
22.9442
-46.182
45.8655
-46.0595
68.6993
-45.8864
91.4038
-45.611
113.935
-45.2614
136.248
-44.8215
158.304
-44.304
180.061
-43.7022
201.481
-43.0248
222.525
-42.2691
243.158
-41.4421
263.343
-40.5436
283.049
-39.5797
302.243
-38.5517
320.896
-37.4653
338.981
-36.3229
356.472
-35.1298
373.345
-33.8893
389.58
-32.6064
405.157
-31.285
420.06
-29.93
434.273
-28.5454
447.785
-27.1363
460.585
-25.7064
472.666
-24.2609
484.021
-22.8035
494.646
-21.3391
504.542
-19.8712
513.706
-18.4046
522.143
-16.9425
529.857
-15.4893
536.853
-14.0482
543.139
-12.6229
548.725
-11.2164
553.621
-9.83212
557.841
-8.47254
561.397
-7.14065
564.305
-5.83864
566.581
-4.56902
568.241
-3.33359
569.305
-2.13441
569.789
-0.97289
569.715
0.149353
569.103
1.23127
567.972
2.27167
566.343
3.26988
564.24
4.2251
561.682
5.13697
558.692
6.00509
555.291
6.8294
551.502
7.60982
547.345
8.34658
542.844
9.03991
538.019
9.69026
532.891
10.2981
527.481
10.8642
521.809
11.3891
515.897
11.8738
509.763
12.3191
503.426
12.7261
496.905
13.0957
490.218
13.4291
483.383
13.7275
476.416
13.9919
469.334
14.2237
462.153
14.4241
454.886
14.5944
447.549
14.7358
440.156
14.8497
432.72
14.9373
425.252
15
417.765
15.0391
410.269
15.0558
402.777
15.0513
395.296
15.027
387.837
14.984
380.408
14.9235
373.018
14.8468
365.674
14.7549
358.383
14.6489
351.151
14.53
343.984
14.3991
336.888
14.2572
329.868
14.1053
322.929
13.9443
316.074
13.775
309.307
13.5984
302.631
13.4152
296.05
13.2262
289.566
13.032
283.181
12.8335
276.896
12.6311
270.714
12.4255
264.636
12.2174
258.663
12.0071
252.796
11.7953
247.035
11.5823
241.38
11.3687
235.832
11.1547
230.39
10.9409
225.055
10.7275
219.827
10.5148
214.703
10.3032
209.685
10.0929
204.77
9.88414
199.959
9.67716
195.25
9.47215
190.642
9.2693
186.134
9.06876
181.725
8.87067
177.414
8.67518
173.198
8.48238
169.077
8.29238
165.05
8.10527
161.114
7.9211
157.269
7.73995
153.512
7.56186
149.843
7.38688
146.259
7.21503
142.76
7.04634
139.343
6.88082
136.007
6.71848
132.75
6.55932
129.571
6.40333
126.468
6.2505
123.44
6.10083
120.484
5.95428
117.601
5.81083
114.787
5.67046
112.042
5.53313
109.363
5.39882
106.75
5.26748
104.201
5.13907
101.715
5.01357
99.2896
4.89091
96.924
4.77107
94.6167
4.65399
92.3664
4.53963
90.1717
4.42795
88.0314
4.31889
85.9441
4.2124
83.9086
4.10845
81.9236
4.00697
79.9879
3.90793
78.1004
3.81127
76.2599
3.71695
74.4651
3.62491
72.7151
3.53511
71.0087
3.4475
69.3449
3.36203
67.7225
3.27866
66.1406
3.19734
64.5982
3.11802
63.0943
3.04066
61.628
2.96521
60.1982
2.89163
58.8042
2.81988
57.445
2.74991
56.1197
2.68168
54.8275
2.61515
53.5675
2.55028
52.3391
2.48702
51.1413
2.42535
49.9734
2.36522
48.8346
2.30659
47.7243
2.24943
46.6416
2.1937
45.586
2.13936
44.5567
2.08638
43.553
2.03474
42.5744
1.98438
41.6202
1.93529
40.6897
1.88742
39.7824
1.84076
38.8977
1.79526
38.035
1.7509
37.1938
1.70765
36.3735
1.66548
35.5736
1.62436
34.7936
1.58427
34.0329
1.54518
33.2912
1.50707
32.5678
1.4699
31.8624
1.43366
31.1745
1.39832
30.5037
1.36386
29.8495
1.33026
29.2115
1.29748
28.5893
1.26552
27.9825
1.23435
27.3907
1.20395
26.8135
1.17429
26.2506
1.14537
25.7016
1.11716
25.1661
1.08964
24.6439
1.06279
24.1345
1.03661
23.6376
1.01106
23.153
0.98613
22.6804
0.96181
22.2193
0.93808
21.7696
0.914925
21.3309
0.892331
20.9029
0.870282
20.4854
0.848763
20.0782
0.827762
19.6809
0.807265
19.2933
0.787258
18.9152
0.767728
18.5462
0.748664
18.1863
0.730053
17.8351
0.711883
17.4924
0.694143
17.158
0.676822
16.8317
0.659909
16.5133
0.643393
16.2026
0.627264
15.8993
0.611512
15.6034
0.596128
15.3145
0.581102
15.0326
0.566426
14.7574
0.552089
14.4887
0.538085
14.2264
0.524404
13.9704
0.511038
13.7204
0.49798
13.4763
0.485222
13.238
0.472756
13.0052
0.460576
12.7779
0.448675
12.5559
0.437045
12.3391
0.425682
12.1272
0.414577
11.9203
0.403725
11.7181
0.393121
11.5206
0.382758
11.3276
0.372631
11.1389
0.362735
10.9546
0.353064
10.7744
0.343614
10.5982
0.334379
10.426
0.325355
10.2577
0.316538
10.093
0.307923
9.93202
0.299505
9.77456
0.291282
9.62053
0.283248
9.46987
0.275399
9.32246
0.267733
9.17823
0.260246
9.03709
0.252933
8.89897
0.245792
8.76377
0.238819
8.63144
0.232012
8.50189
0.225366
8.37504
0.21888
8.25084
0.212549
8.12922
0.206372
8.0101
0.200345
7.89343
0.194465
7.77914
0.188731
7.66718
0.18314
7.55749
0.177688
7.45002
0.172375
7.34471
0.167196
7.24151
0.16215
7.14038
0.157235
7.04126
0.152448
6.94412
0.147788
6.8489
0.143251
6.75558
0.138836
6.6641
0.134541
6.57443
0.130364
6.48653
0.126303
6.40038
0.122354
6.31593
0.118518
6.23315
0.114791
6.15202
0.111172
6.0725
0.107659
5.99458
0.10425
5.91821
0.100942
5.84339
0.0977347
5.77007
0.0946253
5.69826
0.0916123
5.62791
0.0886936
5.55902
0.0858675
5.49157
0.083132
5.42553
0.0804853
5.36089
0.0779256
5.29764
0.0754511
5.23576
0.0730598
5.17524
0.07075
5.11606
0.0685197
5.05822
0.0663673
5.00171
0.0642908
4.9465
0.0622885
4.8926
0.0603585
4.84
0.058499
4.78869
0.0567082
4.73865
0.0549843
4.68989
0.0533256
4.64239
0.0517301
4.59616
0.0501961
4.55118
0.0487219
4.50744
0.0473057
4.46496
0.0459457
4.42371
0.0446402
4.3837
0.0433875
4.34492
0.0421857
4.30737
0.0410333
4.27104
0.0399285
4.23593
0.0388696
4.20204
0.037855
4.16936
0.036883
4.13789
0.035952
4.10763
0.0350604
4.07856
0.0342065
4.0507
0.0333889
4.02402
0.032606
3.99854
0.0318563
3.97424
0.0311382
3.95111
0.0304504
3.92917
0.0297912
3.90839
0.0291595
3.88878
0.0285536
3.87032
0.0279724
3.85302
0.0274144
3.83686
0.0268784
3.82184
0.0263631
3.80794
0.0258672
3.79517
0.0253896
3.78352
0.0249291
3.77296
0.0244845
3.7635
0.0240547
3.75513
0.0236387
3.74783
0.0232354
3.74159
0.0228439
3.7364
0.0224631
3.73224
0.0220921
3.72912
0.0217301
3.727
0.0213761
3.72587
0.0210294
3.72573
0.0206892
3.72655
0.0203546
3.72832
0.0200251
3.73102
0.0196998
3.73463
0.0193783
3.73913
0.0190598
3.74451
0.0187438
3.75074
0.0184298
3.75781
0.0181172
3.76569
0.0178057
3.77435
0.0174947
3.78378
0.017184
3.79396
0.016873
3.80485
0.0165616
3.81643
0.0162495
3.82868
0.0159363
3.84158
0.0156219
3.85508
0.0153062
3.86917
0.0149889
3.88382
0.0146699
3.899
0.0143493
3.91468
0.0140269
3.93083
0.0137027
3.94741
0.0133768
3.9644
0.0130492
3.98177
0.0127201
3.99949
0.0123895
4.01752
0.0120576
4.03582
0.0117246
4.05438
0.0113907
4.07314
0.0110562
4.09209
0.0107213
4.11118
0.0103864
4.13038
0.0100517
4.14966
0.00971769
4.16899
0.00938471
4.18832
0.00905317
4.20762
0.00872351
4.22687
0.00839618
4.24602
0.00807168
4.26505
0.0077505
4.28391
0.00743317
4.30257
0.00712022
4.321
0.00681221
4.33917
0.00650971
4.35704
0.00621332
4.37458
0.00592363
4.39176
0.00564124
4.40855
0.00536678
4.42491
0.00510086
4.44081
0.00484413
4.45623
0.00459722
4.47113
0.00436075
4.48548
0.00413537
4.49927
0.00392171
4.51245
0.00372039
4.525
0.00353206
4.5369
0.00335731
4.54813
0.00319676
4.55865
0.003051
4.56844
0.00292062
4.57748
0.00280617
4.58576
0.00270822
4.59325
0.00262728
4.59992
0.00256388
4.60577
0.0025185
4.61077
0.0024916
4.61491
0.00248362
4.61817
0.00249498
4.62053
0.00252605
4.622
0.0025772
4.62254
0.00264875
4.62215
0.00274099
4.62083
0.00285418
4.61855
0.00298855
4.61531
0.00314429
4.61111
0.00332157
4.60593
0.00352049
4.59978
0.00374116
4.59264
0.00398362
4.58451
0.00424789
4.57538
0.00453396
4.56527
0.00484175
4.55415
0.0051712
4.54203
0.00552216
4.52892
0.00589448
4.5148
0.00628795
4.49969
0.00670237
4.48357
0.00713745
4.46645
0.00759291
4.44833
0.00806842
4.42922
0.00856362
4.40911
0.00907814
4.388
0.00961155
4.36591
0.0101634
4.34282
0.0107333
4.31875
0.0113206
4.29368
0.011925
4.26764
0.0125458
4.24061
0.0131824
4.2126
0.0138344
4.18361
0.0145011
4.15364
0.0151818
4.1227
0.0158761
4.09077
0.0165831
4.05788
0.0173023
4.024
0.018033
3.98915
0.0187745
3.95332
0.019526
3.91652
0.0202869
3.87873
0.0210565
3.83997
0.0218341
3.80022
0.0226188
3.75949
0.02341
3.71777
0.0242069
3.67506
0.0250088
3.63137
0.0258149
3.58668
0.0266244
3.54099
0.0274366
3.4943
0.0282507
3.44661
0.0290659
3.39792
0.0298815
3.34821
0.0306967
3.2975
0.0315107
3.24577
0.0323227
3.19303
0.033132
3.13927
0.0339378
3.0845
0.0347392
3.0287
0.0355356
2.97189
0.0363262
2.91406
0.0371101
2.85521
0.0378866
2.79535
0.038655
2.73447
0.0394144
2.67259
0.0401641
2.60971
0.0409034
2.54583
0.0416315
2.48096
0.0423477
2.41512
0.0430512
2.3483
0.0437413
2.28052
0.0444173
2.2118
0.0450784
2.14215
0.0457241
2.07157
0.0463535
2.0001
0.046966
1.92774
0.0475609
1.85453
0.0481377
1.78047
0.0486955
1.70559
0.0492339
1.62992
0.0497522
1.55349
0.05025
1.47631
0.0507263
1.39842
0.0511812
1.31986
0.0516134
1.24064
0.0520232
1.16081
0.0524092
1.08039
0.0527721
0.999436
0.05311
0.91797
0.0534242
0.836035
0.0537123
0.753668
0.053976
0.670912
0.0542126
0.587808
0.0544236
0.504397
0.0546073
0.420724
0.0547615
0.336834
0.054891
0.252777
0.0549769
0.168606
0.0550513
0.0844078
0.0550333
0.0550903
22.9178
-69.1629
45.8103
-69.0148
68.6143
-68.7529
91.2882
-68.3468
113.788
-67.8225
136.07
-67.1639
158.094
-66.3872
179.818
-65.4841
201.205
-64.4672
222.214
-63.3328
242.81
-62.0914
262.958
-60.7426
282.625
-59.2957
301.779
-57.7526
320.39
-56.1218
338.432
-54.4072
355.879
-52.6164
372.707
-50.7547
388.894
-48.8295
404.423
-46.8465
419.276
-44.8133
433.439
-42.7358
446.899
-40.6215
459.647
-38.4764
471.673
-36.3079
482.974
-34.1217
493.545
-31.9251
503.384
-29.7236
512.494
-27.5241
520.874
-25.3317
528.532
-23.1528
535.472
-20.9921
541.702
-18.8555
547.233
-16.7472
552.075
-14.6723
556.24
-12.6348
559.744
-10.6389
562.6
-8.68807
564.825
-6.78596
566.436
-4.93531
567.452
-3.13917
567.89
-1.39967
567.772
0.280789
567.116
1.90064
565.945
3.45812
564.278
4.95221
562.138
6.38174
559.545
7.74619
556.523
9.04494
553.093
10.278
549.276
11.4451
545.095
12.5467
540.571
13.5832
535.725
14.5553
530.579
15.4636
525.154
16.3092
519.47
17.0932
513.547
17.8169
507.404
18.4816
501.062
19.0888
494.537
19.6401
487.849
20.1371
481.015
20.5817
474.051
20.9754
466.974
21.3204
459.799
21.6183
452.542
21.8711
445.216
22.0808
437.835
22.2493
430.413
22.3786
422.961
22.4705
415.491
22.5271
408.015
22.5503
400.543
22.5419
393.084
22.5038
385.647
22.4378
378.242
22.3458
370.877
22.2294
363.558
22.0904
356.294
21.9304
349.089
21.7511
341.951
21.5539
334.884
21.3403
327.893
21.1118
320.984
20.8698
314.159
20.6155
307.422
20.3503
300.778
20.0752
294.228
19.7915
287.775
19.5002
281.421
19.2023
275.168
18.8987
269.018
18.5905
262.971
18.2784
257.029
17.9632
251.193
17.6458
245.463
17.3266
239.84
17.0065
234.322
16.686
228.912
16.3657
223.607
16.0461
218.408
15.7276
213.314
15.4107
208.325
15.0958
203.44
14.7833
198.657
14.4734
193.977
14.1665
189.397
13.8628
184.916
13.5627
180.534
13.2662
176.249
12.9736
172.06
12.6851
167.965
12.4008
163.963
12.1208
160.052
11.8453
156.231
11.5742
152.498
11.3078
148.852
11.046
145.292
10.7889
141.815
10.5366
138.42
10.289
135.105
10.0461
131.87
9.80805
128.711
9.57473
125.629
9.34614
122.62
9.12227
119.685
8.90309
116.82
8.68855
114.025
8.47861
111.298
8.27324
108.637
8.07237
106.041
7.87595
103.509
7.68393
101.04
7.49624
98.6306
7.31283
96.2808
7.13361
93.989
6.95854
91.7538
6.78753
89.5739
6.62053
87.4479
6.45745
85.3747
6.29822
83.3529
6.14278
81.3813
5.99105
79.4587
5.84296
77.5839
5.69843
75.7558
5.5574
73.9732
5.41978
72.235
5.28551
70.5402
5.15452
68.8876
5.02673
67.2762
4.90207
65.705
4.78048
64.1731
4.66189
62.6794
4.54622
61.223
4.43342
59.8029
4.32341
58.4183
4.21613
57.0683
4.11151
55.752
4.0095
54.4686
3.91003
53.2172
3.81304
51.9971
3.71847
50.8074
3.62626
49.6474
3.53635
48.5164
3.4487
47.4136
3.36323
46.3383
3.27991
45.2898
3.19867
44.2675
3.11947
43.2707
3.04225
42.2987
2.96696
41.3509
2.89356
40.4267
2.822
39.5256
2.75223
38.6469
2.6842
37.79
2.61788
36.9545
2.55321
36.1397
2.49017
35.3453
2.42869
34.5705
2.36876
33.815
2.31031
33.0783
2.25333
32.3598
2.19776
31.6592
2.14358
30.9759
2.09074
30.3096
2.03922
29.6598
1.98897
29.0261
1.93997
28.4081
1.89218
27.8054
1.84558
27.2176
1.80012
26.6443
1.75578
26.0852
1.71254
25.5399
1.67036
25.008
1.62921
24.4893
1.58907
23.9833
1.54992
23.4898
1.51172
23.0085
1.47445
22.539
1.43808
22.081
1.4026
21.6343
1.36798
21.1985
1.3342
20.7734
1.30123
20.3588
1.26905
19.9542
1.23765
19.5596
1.207
19.1746
1.17709
18.799
1.14788
18.4325
1.11938
18.075
1.09155
17.7261
1.06438
17.3857
1.03785
17.0536
1.01195
16.7294
0.986657
16.4132
0.96196
16.1045
0.937841
15.8033
0.914286
15.5093
0.89128
15.2223
0.86881
14.9423
0.846862
14.6689
0.825423
14.402
0.804479
14.1415
0.784019
13.8871
0.764031
13.6388
0.744502
13.3963
0.725421
13.1596
0.706778
12.9283
0.688562
12.7025
0.670763
12.482
0.653369
12.2666
0.636373
12.0562
0.619764
11.8506
0.603534
11.6498
0.587673
11.4535
0.572173
11.2618
0.557025
11.0744
0.542223
10.8912
0.527758
10.7122
0.513622
10.5372
0.499809
10.3662
0.486311
10.1989
0.473122
10.0353
0.460235
9.8754
0.447643
9.71897
0.435341
9.56596
0.423323
9.41628
0.411583
9.26984
0.400115
9.12656
0.388914
8.98635
0.377974
8.84913
0.367291
8.71482
0.35686
8.58335
0.346676
8.45465
0.336734
8.32864
0.32703
8.20525
0.317559
8.08442
0.308318
7.96608
0.299301
7.85017
0.290506
7.73663
0.281927
7.6254
0.273562
7.51643
0.265407
7.40966
0.257457
7.30504
0.24971
7.20251
0.242162
7.10204
0.234809
7.00357
0.227648
6.90706
0.220676
6.81246
0.21389
6.71974
0.207286
6.62886
0.200861
6.53977
0.194613
6.45245
0.188538
6.36685
0.182633
6.28295
0.176895
6.20071
0.171321
6.12011
0.165908
6.04111
0.160654
5.96369
0.155556
5.88782
0.15061
5.81347
0.145814
5.74064
0.141165
5.66928
0.136661
5.59939
0.132297
5.53095
0.128073
5.46392
0.123984
5.39831
0.120028
5.33409
0.116203
5.27125
0.112505
5.20976
0.108932
5.14963
0.105482
5.09084
0.10215
5.03337
0.0989352
4.97721
0.0958342
4.92236
0.0928444
4.86881
0.0899631
4.81654
0.0871874
4.76556
0.0845148
4.71584
0.0819425
4.66739
0.0794678
4.6202
0.0770881
4.57426
0.0748007
4.52956
0.0726028
4.48611
0.0704919
4.44389
0.0684654
4.40291
0.0665206
4.36316
0.0646549
4.32462
0.0628657
4.28731
0.0611504
4.25122
0.0595066
4.21633
0.0579317
4.18266
0.0564232
4.15019
0.0549786
4.11892
0.0535955
4.08885
0.0522714
4.05997
0.0510041
4.03228
0.049791
4.00578
0.04863
3.98046
0.0475187
3.95632
0.0464549
3.93335
0.0454363
3.91155
0.0444609
3.89091
0.0435264
3.87142
0.0426308
3.85309
0.041772
3.83591
0.0409481
3.81986
0.040157
3.80494
0.0393969
3.79114
0.0386659
3.77847
0.0379622
3.76689
0.0372841
3.75642
0.0366297
3.74703
0.0359975
3.73873
0.0353858
3.73149
0.034793
3.7253
0.0342177
3.72016
0.0336584
3.71605
0.0331137
3.71296
0.0325823
3.71088
0.0320627
3.70978
0.0315539
3.70966
0.0310546
3.7105
0.0305636
3.71228
0.0300799
3.71499
0.0296025
3.7186
0.0291304
3.72311
0.0286626
3.72848
0.0281983
3.7347
0.0277368
3.74175
0.0272771
3.74961
0.0268188
3.75825
0.026361
3.76766
0.0259032
3.7778
0.0254448
3.78866
0.0249855
3.80021
0.0245247
3.81242
0.024062
3.82527
0.0235972
3.83873
0.02313
3.85278
0.0226601
3.86738
0.0221875
3.8825
0.0217118
3.89812
0.0212332
3.91421
0.0207516
3.93074
0.020267
3.94767
0.0197795
3.96498
0.0192892
3.98263
0.0187964
4.0006
0.0183012
4.01884
0.017804
4.03732
0.0173051
4.05602
0.0168047
4.0749
0.0163035
4.09392
0.0158017
4.11306
0.0153
4.13227
0.0147988
4.15152
0.0142987
4.17079
0.0138004
4.19002
0.0133045
4.2092
0.0128117
4.22829
0.0123228
4.24725
0.0118384
4.26604
0.0113594
4.28464
0.0108866
4.30301
0.0104208
4.32112
0.00996296
4.33893
0.00951385
4.35642
0.00907443
4.37354
0.00864561
4.39028
0.00822834
4.40659
0.00782355
4.42244
0.0074322
4.43782
0.00705525
4.45268
0.00669366
4.46699
0.0063484
4.48074
0.00602044
4.49389
0.00571072
4.50641
0.0054202
4.51828
0.00514981
4.52948
0.00490048
4.53998
0.0046731
4.54976
0.00446858
4.55879
0.00428776
4.56706
0.00413149
4.57454
0.00400057
4.58121
0.00389579
4.58706
0.0038179
4.59206
0.00376759
4.59621
0.00374555
4.59948
0.0037524
4.60187
0.00378874
4.60335
0.00385511
4.60392
0.00395201
4.60356
0.00407989
4.60227
0.00423916
4.60003
0.00443017
4.59683
0.00465322
4.59267
0.00490855
4.58754
0.00519637
4.58144
0.00551682
4.57436
0.00586998
4.56629
0.00625589
4.55723
0.00667452
4.54718
0.00712581
4.53614
0.00760962
4.5241
0.00812576
4.51106
0.00867401
4.49703
0.00925407
4.482
0.00986561
4.46597
0.0105082
4.44895
0.0111815
4.43093
0.0118849
4.41192
0.012618
4.39191
0.0133801
4.37092
0.0141707
4.34893
0.014989
4.32596
0.0158343
4.30201
0.0167061
4.27707
0.0176033
4.25115
0.0185253
4.22425
0.0194712
4.19637
0.0204401
4.16752
0.0214312
4.13769
0.0224434
4.10688
0.0234759
4.07511
0.0245277
4.04235
0.0255977
4.00863
0.0266849
3.97393
0.0277884
3.93826
0.028907
3.90162
0.0300397
3.86399
0.0311854
3.8254
0.032343
3.78582
0.0335114
3.74526
0.0346895
3.70372
0.0358761
3.66119
0.0370702
3.61768
0.0382705
3.57317
0.039476
3.52767
0.0406854
3.48117
0.0418977
3.43368
0.0431116
3.38518
0.0443261
3.33568
0.0455398
3.28517
0.0467518
3.23365
0.0479607
3.18111
0.0491655
3.12757
0.050365
3.07301
0.0515579
3.01743
0.0527433
2.96084
0.0539198
2.90323
0.0550864
2.84461
0.0562418
2.78498
0.057385
2.72434
0.0585149
2.6627
0.0596302
2.60006
0.0607298
2.53642
0.0618127
2.4718
0.0628777
2.40621
0.0639238
2.33964
0.0649499
2.27212
0.0659549
2.20366
0.0669376
2.13426
0.0678973
2.06396
0.0688327
1.99275
0.0697429
1.92067
0.0706269
1.84772
0.0714838
1.77394
0.0723125
1.69934
0.0731124
1.62395
0.0738822
1.5478
0.0746216
1.47091
0.075329
1.39331
0.0760044
1.31503
0.0766462
1.2361
0.0772547
1.15656
0.0778279
1.07645
0.0783667
0.995785
0.0788684
0.914617
0.0793349
0.832981
0.0797627
0.750916
0.0801543
0.668462
0.080506
0.585658
0.0808202
0.502549
0.081094
0.419174
0.0813268
0.335578
0.0815218
0.251803
0.0816655
0.167915
0.0817823
0.084056
0.0818181
0.0818646
22.9443
-92.1705
45.8497
-91.9831
68.6657
-91.6316
91.3511
-91.0942
113.861
-90.3936
136.152
-89.5157
158.184
-88.4778
179.914
-87.2719
201.303
-85.9132
222.313
-84.3978
242.908
-82.7392
263.052
-80.9372
282.711
-79.0041
301.854
-76.9427
320.452
-74.7642
338.476
-72.4739
355.901
-70.082
372.705
-67.5955
388.864
-65.0244
404.362
-62.3763
419.18
-59.6614
433.304
-56.8875
446.723
-54.0649
459.425
-51.2012
471.404
-48.3067
482.654
-45.3889
493.171
-42.4575
502.955
-39.5199
512.006
-36.5853
520.327
-33.6604
527.922
-30.754
534.798
-27.8722
540.964
-25.0228
546.429
-22.2116
551.204
-19.4454
555.302
-16.7293
558.738
-14.0692
561.526
-11.4695
563.684
-8.93511
565.228
-6.46968
566.177
-4.07728
566.55
-1.76072
566.368
0.476824
565.649
2.63326
564.416
4.70629
562.69
6.69454
560.492
8.59649
557.844
10.4115
554.768
12.1387
551.286
13.7781
547.421
15.3295
543.193
16.7935
538.625
18.1705
533.739
19.4615
528.555
20.6676
523.094
21.79
517.377
22.8302
511.424
23.7901
505.255
24.6713
498.888
25.4759
492.342
26.206
485.636
26.8639
478.786
27.4518
471.809
27.9722
464.722
28.4276
457.539
28.8204
450.276
29.1533
442.948
29.4288
435.567
29.6495
428.146
29.818
420.699
29.937
413.236
30.009
405.768
30.0365
398.305
30.0222
390.859
29.9684
383.437
29.8777
376.047
29.7524
368.699
29.5948
361.4
29.4072
354.155
29.1918
346.972
28.9508
339.856
28.6861
332.813
28.3998
325.847
28.0938
318.963
27.7698
312.165
27.4297
305.456
27.075
298.839
26.7074
292.317
26.3284
285.893
25.9394
279.569
25.5417
273.346
25.1367
267.226
24.7255
261.209
24.3092
255.298
23.8889
249.493
23.4657
243.794
23.0403
238.201
22.6137
232.714
22.1867
227.334
21.7599
222.06
21.3342
216.891
20.91
211.828
20.4881
206.869
20.0688
202.013
19.6527
197.26
19.2402
192.609
18.8317
188.057
18.4276
183.606
18.0281
179.252
17.6336
174.995
17.2444
170.833
16.8605
166.765
16.4823
162.789
16.1098
158.904
15.7433
155.109
15.3828
151.402
15.0284
147.781
14.6803
144.245
14.3384
140.792
14.0028
137.42
13.6736
134.129
13.3507
130.916
13.0342
127.78
12.724
124.719
12.4201
121.732
12.1224
118.817
11.8311
115.973
11.5459
113.198
11.2668
110.491
10.9938
107.849
10.7268
105.272
10.4657
102.759
10.2105
100.307
9.96104
97.9152
9.71726
95.5826
9.47908
93.3075
9.2464
91.0887
9.01913
88.9247
8.79718
86.8144
8.58046
84.7564
8.36886
82.7494
8.16229
80.7924
7.96065
78.884
7.76385
77.023
7.57179
75.2084
7.38438
73.439
7.20151
71.7137
7.02308
70.0314
6.84902
68.391
6.67921
66.7916
6.51357
65.2321
6.352
63.7116
6.19442
62.2289
6.04072
60.7834
5.89083
59.3739
5.74465
57.9996
5.6021
56.6596
5.4631
55.3531
5.32755
54.0792
5.19538
52.8371
5.0665
51.6261
4.94085
50.4453
4.81833
49.2939
4.69887
48.1713
4.5824
47.0767
4.46884
46.0094
4.35813
44.9687
4.25019
43.954
4.14495
42.9646
4.04235
41.9998
3.94232
41.0591
3.84479
40.1418
3.7497
39.2473
3.657
38.3752
3.56661
37.5247
3.47849
36.6953
3.39257
35.8866
3.3088
35.0981
3.22712