/*--------------------------------*- C++ -*----------------------------------*\
| =========                 |                                                 |
| \\      /  F ield         | OpenFOAM: The Open Source CFD Toolbox           |
|  \\    /   O peration     | Version:  v2012                                 |
|   \\  /    A nd           | Website:  www.openfoam.com                      |
|    \\/     M anipulation  |                                                 |
\*---------------------------------------------------------------------------*/
FoamFile
{
    version     2.0;
    format      ascii;
    class       volScalarField;
    location    "100";
    object      T;
}
// * * * * * * * * * * * * * * * * * * * * * * * * * * * * * * * * * * * * * //

dimensions      [0 0 0 1 0 0 0];


internalField   nonuniform List<scalar> 
65536
(
299.891
299.891
299.89
299.89
299.889
299.888
299.887
299.886
299.885
299.883
299.882
299.88
299.878
299.876
299.874
299.872
299.87
299.867
299.865
299.862
299.86
299.857
299.855
299.852
299.849
299.847
299.844
299.841
299.839
299.836
299.834
299.831
299.828
299.826
299.824
299.821
299.819
299.817
299.814
299.812
299.81
299.808
299.806
299.804
299.803
299.801
299.799
299.798
299.796
299.795
299.794
299.792
299.791
299.79
299.789
299.788
299.787
299.786
299.785
299.784
299.783
299.783
299.782
299.782
299.781
299.78
299.78
299.779
299.779
299.779
299.778
299.778
299.778
299.777
299.777
299.777
299.777
299.776
299.776
299.776
299.776
299.776
299.776
299.775
299.775
299.775
299.775
299.775
299.775
299.775
299.775
299.775
299.775
299.775
299.775
299.775
299.774
299.774
299.774
299.774
299.774
299.774
299.774
299.774
299.774
299.774
299.774
299.774
299.774
299.774
299.774
299.774
299.774
299.774
299.774
299.774
299.774
299.774
299.774
299.774
299.774
299.774
299.774
299.774
299.774
299.774
299.774
299.774
299.774
299.774
299.774
299.774
299.773
299.773
299.773
299.773
299.773
299.773
299.773
299.773
299.773
299.773
299.773
299.773
299.773
299.773
299.773
299.773
299.773
299.773
299.773
299.773
299.773
299.773
299.773
299.773
299.773
299.773
299.773
299.773
299.773
299.773
299.773
299.773
299.773
299.773
299.773
299.773
299.773
299.773
299.773
299.773
299.773
299.773
299.773
299.773
299.773
299.773
299.773
299.773
299.773
299.772
299.772
299.772
299.772
299.772
299.772
299.772
299.772
299.772
299.772
299.772
299.772
299.772
299.772
299.772
299.772
299.772
299.772
299.772
299.772
299.772
299.772
299.772
299.772
299.772
299.772
299.772
299.772
299.772
299.772
299.772
299.772
299.772
299.772
299.772
299.772
299.772
299.771
299.771
299.771
299.771
299.771
299.771
299.771
299.771
299.771
299.771
299.771
299.771
299.771
299.771
299.771
299.771
299.771
299.771
299.771
299.771
299.771
299.77
299.77
299.77
299.77
299.77
299.77
299.77
299.77
299.77
299.77
299.77
299.77
299.77
299.769
299.769
299.769
299.769
299.769
299.769
299.769
299.769
299.769
299.769
299.768
299.768
299.768
299.768
299.768
299.768
299.768
299.768
299.768
299.767
299.767
299.767
299.767
299.767
299.767
299.767
299.767
299.766
299.766
299.766
299.766
299.766
299.766
299.766
299.766
299.765
299.765
299.765
299.765
299.765
299.765
299.765
299.764
299.764
299.764
299.764
299.764
299.764
299.764
299.763
299.763
299.763
299.763
299.763
299.763
299.763
299.763
299.762
299.762
299.762
299.762
299.762
299.762
299.762
299.762
299.761
299.761
299.761
299.761
299.761
299.761
299.761
299.761
299.76
299.76
299.76
299.76
299.76
299.76
299.76
299.76
299.76
299.76
299.759
299.759
299.759
299.759
299.759
299.759
299.759
299.759
299.759
299.759
299.759
299.759
299.759
299.758
299.758
299.758
299.758
299.758
299.758
299.758
299.758
299.758
299.758
299.758
299.758
299.758
299.758
299.758
299.758
299.757
299.757
299.757
299.757
299.757
299.757
299.757
299.757
299.757
299.757
299.757
299.757
299.757
299.757
299.757
299.757
299.756
299.756
299.756
299.756
299.756
299.756
299.756
299.756
299.756
299.756
299.756
299.756
299.755
299.755
299.755
299.755
299.755
299.755
299.755
299.755
299.755
299.754
299.754
299.754
299.754
299.754
299.754
299.753
299.753
299.753
299.753
299.753
299.753
299.752
299.752
299.752
299.752
299.752
299.751
299.751
299.751
299.751
299.75
299.75
299.75
299.75
299.749
299.749
299.749
299.748
299.748
299.748
299.748
299.747
299.747
299.747
299.746
299.746
299.746
299.745
299.745
299.745
299.744
299.744
299.744
299.743
299.743
299.742
299.742
299.742
299.741
299.741
299.741
299.74
299.74
299.739
299.739
299.739
299.738
299.738
299.737
299.737
299.737
299.736
299.736
299.736
299.735
299.735
299.734
299.734
299.734
299.733
299.733
299.733
299.732
299.732
299.731
299.731
299.731
299.73
299.73
299.73
299.73
299.729
299.729
299.729
299.728
299.728
299.728
299.728
299.727
299.727
299.727
299.727
299.726
299.726
299.726
299.726
299.726
299.726
299.725
299.725
299.725
299.725
299.725
299.725
299.725
299.725
299.725
299.725
299.725
299.725
299.4
299.4
299.399
299.399
299.398
299.397
299.396
299.395
299.394
299.392
299.391
299.389
299.387
299.385
299.383
299.381
299.379
299.377
299.374
299.372
299.369
299.367
299.364
299.361
299.359
299.356
299.353
299.351
299.348
299.346
299.343
299.34
299.338
299.335
299.333
299.331
299.328
299.326
299.324
299.322
299.32
299.318
299.316
299.314
299.312
299.31
299.309
299.307
299.306
299.304
299.303
299.302
299.3
299.299
299.298
299.297
299.296
299.295
299.294
299.294
299.293
299.292
299.291
299.291
299.29
299.29
299.289
299.289
299.288
299.288
299.288
299.287
299.287
299.287
299.286
299.286
299.286
299.286
299.285
299.285
299.285
299.285
299.285
299.285
299.285
299.284
299.284
299.284
299.284
299.284
299.284
299.284
299.284
299.284
299.284
299.284
299.284
299.284
299.284
299.284
299.283
299.283
299.283
299.283
299.283
299.283
299.283
299.283
299.283
299.283
299.283
299.283
299.283
299.283
299.283
299.283
299.283
299.283
299.283
299.283
299.283
299.283
299.283
299.283
299.283
299.283
299.283
299.283
299.283
299.283
299.283
299.283
299.283
299.283
299.283
299.282
299.282
299.282
299.282
299.282
299.282
299.282
299.282
299.282
299.282
299.282
299.282
299.282
299.282
299.282
299.282
299.282
299.282
299.282
299.282
299.282
299.282
299.282
299.282
299.282
299.282
299.282
299.282
299.282
299.282
299.282
299.282
299.282
299.282
299.282
299.282
299.282
299.282
299.282
299.282
299.282
299.282
299.282
299.282
299.282
299.282
299.282
299.281
299.281
299.281
299.281
299.281
299.281
299.281
299.281
299.281
299.281
299.281
299.281
299.281
299.281
299.281
299.281
299.281
299.281
299.281
299.281
299.281
299.281
299.281
299.281
299.281
299.281
299.281
299.281
299.281
299.281
299.281
299.281
299.281
299.281
299.281
299.281
299.281
299.28
299.28
299.28
299.28
299.28
299.28
299.28
299.28
299.28
299.28
299.28
299.28
299.28
299.28
299.28
299.28
299.28
299.28
299.28
299.28
299.279
299.279
299.279
299.279
299.279
299.279
299.279
299.279
299.279
299.279
299.279
299.279
299.279
299.278
299.278
299.278
299.278
299.278
299.278
299.278
299.278
299.278
299.278
299.277
299.277
299.277
299.277
299.277
299.277
299.277
299.277
299.277
299.276
299.276
299.276
299.276
299.276
299.276
299.276
299.276
299.275
299.275
299.275
299.275
299.275
299.275
299.275
299.275
299.274
299.274
299.274
299.274
299.274
299.274
299.274
299.273
299.273
299.273
299.273
299.273
299.273
299.273
299.272
299.272
299.272
299.272
299.272
299.272
299.272
299.272
299.271
299.271
299.271
299.271
299.271
299.271
299.271
299.271
299.27
299.27
299.27
299.27
299.27
299.27
299.27
299.27
299.269
299.269
299.269
299.269
299.269
299.269
299.269
299.269
299.269
299.269
299.269
299.268
299.268
299.268
299.268
299.268
299.268
299.268
299.268
299.268
299.268
299.268
299.268
299.267
299.267
299.267
299.267
299.267
299.267
299.267
299.267
299.267
299.267
299.267
299.267
299.267
299.267
299.267
299.267
299.266
299.266
299.266
299.266
299.266
299.266
299.266
299.266
299.266
299.266
299.266
299.266
299.266
299.266
299.266
299.266
299.265
299.265
299.265
299.265
299.265
299.265
299.265
299.265
299.265
299.265
299.265
299.265
299.264
299.264
299.264
299.264
299.264
299.264
299.264
299.264
299.264
299.263
299.263
299.263
299.263
299.263
299.263
299.262
299.262
299.262
299.262
299.262
299.262
299.261
299.261
299.261
299.261
299.261
299.26
299.26
299.26
299.26
299.259
299.259
299.259
299.259
299.258
299.258
299.258
299.257
299.257
299.257
299.257
299.256
299.256
299.256
299.255
299.255
299.255
299.254
299.254
299.254
299.253
299.253
299.253
299.252
299.252
299.251
299.251
299.251
299.25
299.25
299.25
299.249
299.249
299.248
299.248
299.248
299.247
299.247
299.246
299.246
299.246
299.245
299.245
299.245
299.244
299.244
299.243
299.243
299.243
299.242
299.242
299.242
299.241
299.241
299.24
299.24
299.24
299.239
299.239
299.239
299.239
299.238
299.238
299.238
299.237
299.237
299.237
299.237
299.236
299.236
299.236
299.236
299.235
299.235
299.235
299.235
299.235
299.235
299.234
299.234
299.234
299.234
299.234
299.234
299.234
299.234
299.234
299.234
299.234
299.234
298.91
298.91
298.909
298.909
298.908
298.907
298.906
298.905
298.904
298.902
298.901
298.899
298.897
298.895
298.893
298.891
298.889
298.886
298.884
298.881
298.879
298.876
298.874
298.871
298.868
298.866
298.863
298.86
298.858
298.855
298.853
298.85
298.847
298.845
298.843
298.84
298.838
298.836
298.833
298.831
298.829
298.827
298.825
298.824
298.822
298.82
298.818
298.817
298.815
298.814
298.813
298.811
298.81
298.809
298.808
298.807
298.806
298.805
298.804
298.803
298.803
298.802
298.801
298.801
298.8
298.8
298.799
298.799
298.798
298.798
298.797
298.797
298.797
298.796
298.796
298.796
298.796
298.796
298.795
298.795
298.795
298.795
298.795
298.795
298.794
298.794
298.794
298.794
298.794
298.794
298.794
298.794
298.794
298.794
298.794
298.794
298.794
298.794
298.793
298.793
298.793
298.793
298.793
298.793
298.793
298.793
298.793
298.793
298.793
298.793
298.793
298.793
298.793
298.793
298.793
298.793
298.793
298.793
298.793
298.793
298.793
298.793
298.793
298.793
298.793
298.793
298.793
298.793
298.793
298.793
298.793
298.793
298.793
298.793
298.792
298.792
298.792
298.792
298.792
298.792
298.792
298.792
298.792
298.792
298.792
298.792
298.792
298.792
298.792
298.792
298.792
298.792
298.792
298.792
298.792
298.792
298.792
298.792
298.792
298.792
298.792
298.792
298.792
298.792
298.792
298.792
298.792
298.792
298.792
298.792
298.792
298.792
298.792
298.792
298.792
298.792
298.792
298.792
298.792
298.792
298.792
298.791
298.791
298.791
298.791
298.791
298.791
298.791
298.791
298.791
298.791
298.791
298.791
298.791
298.791
298.791
298.791
298.791
298.791
298.791
298.791
298.791
298.791
298.791
298.791
298.791
298.791
298.791
298.791
298.791
298.791
298.791
298.791
298.791
298.791
298.791
298.791
298.791
298.79
298.79
298.79
298.79
298.79
298.79
298.79
298.79
298.79
298.79
298.79
298.79
298.79
298.79
298.79
298.79
298.79
298.79
298.79
298.79
298.79
298.789
298.789
298.789
298.789
298.789
298.789
298.789
298.789
298.789
298.789
298.789
298.789
298.789
298.788
298.788
298.788
298.788
298.788
298.788
298.788
298.788
298.788
298.788
298.787
298.787
298.787
298.787
298.787
298.787
298.787
298.787
298.787
298.786
298.786
298.786
298.786
298.786
298.786
298.786
298.786
298.785
298.785
298.785
298.785
298.785
298.785
298.785
298.785
298.784
298.784
298.784
298.784
298.784
298.784
298.784
298.783
298.783
298.783
298.783
298.783
298.783
298.783
298.782
298.782
298.782
298.782
298.782
298.782
298.782
298.782
298.781
298.781
298.781
298.781
298.781
298.781
298.781
298.781
298.78
298.78
298.78
298.78
298.78
298.78
298.78
298.78
298.78
298.779
298.779
298.779
298.779
298.779
298.779
298.779
298.779
298.779
298.779
298.778
298.778
298.778
298.778
298.778
298.778
298.778
298.778
298.778
298.778
298.778
298.778
298.777
298.777
298.777
298.777
298.777
298.777
298.777
298.777
298.777
298.777
298.777
298.777
298.777
298.777
298.777
298.777
298.776
298.776
298.776
298.776
298.776
298.776
298.776
298.776
298.776
298.776
298.776
298.776
298.776
298.776
298.776
298.776
298.775
298.775
298.775
298.775
298.775
298.775
298.775
298.775
298.775
298.775
298.775
298.775
298.774
298.774
298.774
298.774
298.774
298.774
298.774
298.774
298.774
298.773
298.773
298.773
298.773
298.773
298.773
298.772
298.772
298.772
298.772
298.772
298.772
298.771
298.771
298.771
298.771
298.771
298.77
298.77
298.77
298.77
298.769
298.769
298.769
298.769
298.768
298.768
298.768
298.767
298.767
298.767
298.767
298.766
298.766
298.766
298.765
298.765
298.765
298.764
298.764
298.764
298.763
298.763
298.763
298.762
298.762
298.761
298.761
298.761
298.76
298.76
298.76
298.759
298.759
298.758
298.758
298.758
298.757
298.757
298.756
298.756
298.756
298.755
298.755
298.755
298.754
298.754
298.753
298.753
298.753
298.752
298.752
298.752
298.751
298.751
298.75
298.75
298.75
298.749
298.749
298.749
298.749
298.748
298.748
298.748
298.747
298.747
298.747
298.747
298.746
298.746
298.746
298.746
298.745
298.745
298.745
298.745
298.745
298.745
298.744
298.744
298.744
298.744
298.744
298.744
298.744
298.744
298.744
298.744
298.744
298.744
298.419
298.419
298.419
298.418
298.417
298.417
298.416
298.414
298.413
298.412
298.41
298.408
298.406
298.404
298.402
298.4
298.398
298.395
298.393
298.39
298.388
298.385
298.383
298.38
298.377
298.375
298.372
298.369
298.367
298.364
298.361
298.359
298.356
298.354
298.351
298.349
298.347
298.344
298.342
298.34
298.338
298.336
298.334
298.332
298.331
298.329
298.327
298.326
298.324
298.323
298.321
298.32
298.319
298.318
298.317
298.316
298.315
298.314
298.313
298.312
298.311
298.311
298.31
298.309
298.309
298.308
298.308
298.307
298.307
298.307
298.306
298.306
298.306
298.305
298.305
298.305
298.305
298.304
298.304
298.304
298.304
298.304
298.304
298.304
298.303
298.303
298.303
298.303
298.303
298.303
298.303
298.303
298.303
298.303
298.303
298.303
298.303
298.302
298.302
298.302
298.302
298.302
298.302
298.302
298.302
298.302
298.302
298.302
298.302
298.302
298.302
298.302
298.302
298.302
298.302
298.302
298.302
298.302
298.302
298.302
298.302
298.302
298.302
298.302
298.302
298.302
298.302
298.302
298.302
298.302
298.302
298.302
298.302
298.301
298.301
298.301
298.301
298.301
298.301
298.301
298.301
298.301
298.301
298.301
298.301
298.301
298.301
298.301
298.301
298.301
298.301
298.301
298.301
298.301
298.301
298.301
298.301
298.301
298.301
298.301
298.301
298.301
298.301
298.301
298.301
298.301
298.301
298.301
298.301
298.301
298.301
298.301
298.301
298.301
298.301
298.301
298.301
298.301
298.301
298.301
298.301
298.3
298.3
298.3
298.3
298.3
298.3
298.3
298.3
298.3
298.3
298.3
298.3
298.3
298.3
298.3
298.3
298.3
298.3
298.3
298.3
298.3
298.3
298.3
298.3
298.3
298.3
298.3
298.3
298.3
298.3
298.3
298.3
298.3
298.3
298.3
298.3
298.3
298.299
298.299
298.299
298.299
298.299
298.299
298.299
298.299
298.299
298.299
298.299
298.299
298.299
298.299
298.299
298.299
298.299
298.299
298.299
298.299
298.298
298.298
298.298
298.298
298.298
298.298
298.298
298.298
298.298
298.298
298.298
298.298
298.298
298.298
298.297
298.297
298.297
298.297
298.297
298.297
298.297
298.297
298.297
298.297
298.296
298.296
298.296
298.296
298.296
298.296
298.296
298.296
298.296
298.295
298.295
298.295
298.295
298.295
298.295
298.295
298.295
298.294
298.294
298.294
298.294
298.294
298.294
298.294
298.294
298.293
298.293
298.293
298.293
298.293
298.293
298.293
298.292
298.292
298.292
298.292
298.292
298.292
298.292
298.291
298.291
298.291
298.291
298.291
298.291
298.291
298.291
298.29
298.29
298.29
298.29
298.29
298.29
298.29
298.29
298.289
298.289
298.289
298.289
298.289
298.289
298.289
298.289
298.289
298.288
298.288
298.288
298.288
298.288
298.288
298.288
298.288
298.288
298.288
298.287
298.287
298.287
298.287
298.287
298.287
298.287
298.287
298.287
298.287
298.287
298.287
298.286
298.286
298.286
298.286
298.286
298.286
298.286
298.286
298.286
298.286
298.286
298.286
298.286
298.286
298.286
298.286
298.285
298.285
298.285
298.285
298.285
298.285
298.285
298.285
298.285
298.285
298.285
298.285
298.285
298.285
298.285
298.285
298.284
298.284
298.284
298.284
298.284
298.284
298.284
298.284
298.284
298.284
298.284
298.284
298.283
298.283
298.283
298.283
298.283
298.283
298.283
298.283
298.283
298.282
298.282
298.282
298.282
298.282
298.282
298.281
298.281
298.281
298.281
298.281
298.281
298.28
298.28
298.28
298.28
298.28
298.279
298.279
298.279
298.279
298.278
298.278
298.278
298.278
298.277
298.277
298.277
298.276
298.276
298.276
298.276
298.275
298.275
298.275
298.274
298.274
298.274
298.273
298.273
298.273
298.272
298.272
298.272
298.271
298.271
298.27
298.27
298.27
298.269
298.269
298.269
298.268
298.268
298.267
298.267
298.267
298.266
298.266
298.265
298.265
298.265
298.264
298.264
298.264
298.263
298.263
298.262
298.262
298.262
298.261
298.261
298.261
298.26
298.26
298.259
298.259
298.259
298.258
298.258
298.258
298.258
298.257
298.257
298.257
298.256
298.256
298.256
298.256
298.255
298.255
298.255
298.255
298.254
298.254
298.254
298.254
298.254
298.254
298.253
298.253
298.253
298.253
298.253
298.253
298.253
298.253
298.253
298.253
298.253
298.253
297.929
297.929
297.929
297.928
297.927
297.927
297.926
297.924
297.923
297.922
297.92
297.918
297.916
297.914
297.912
297.91
297.908
297.905
297.903
297.9
297.898
297.895
297.893
297.89
297.887
297.885
297.882
297.879
297.876
297.874
297.871
297.869
297.866
297.864
297.861
297.859
297.856
297.854
297.852
297.85
297.848
297.846
297.844
297.842
297.84
297.839
297.837
297.835
297.834
297.832
297.831
297.83
297.829
297.828
297.826
297.825
297.824
297.824
297.823
297.822
297.821
297.821
297.82
297.819
297.819
297.818
297.818
297.817
297.817
297.817
297.816
297.816
297.816
297.815
297.815
297.815
297.815
297.814
297.814
297.814
297.814
297.814
297.814
297.813
297.813
297.813
297.813
297.813
297.813
297.813
297.813
297.813
297.813
297.813
297.813
297.813
297.813
297.812
297.812
297.812
297.812
297.812
297.812
297.812
297.812
297.812
297.812
297.812
297.812
297.812
297.812
297.812
297.812
297.812
297.812
297.812
297.812
297.812
297.812
297.812
297.812
297.812
297.812
297.812
297.812
297.812
297.812
297.812
297.812
297.812
297.812
297.812
297.812
297.812
297.811
297.811
297.811
297.811
297.811
297.811
297.811
297.811
297.811
297.811
297.811
297.811
297.811
297.811
297.811
297.811
297.811
297.811
297.811
297.811
297.811
297.811
297.811
297.811
297.811
297.811
297.811
297.811
297.811
297.811
297.811
297.811
297.811
297.811
297.811
297.811
297.811
297.811
297.811
297.811
297.811
297.811
297.811
297.811
297.811
297.811
297.811
297.81
297.81
297.81
297.81
297.81
297.81
297.81
297.81
297.81
297.81
297.81
297.81
297.81
297.81
297.81
297.81
297.81
297.81
297.81
297.81
297.81
297.81
297.81
297.81
297.81
297.81
297.81
297.81
297.81
297.81
297.81
297.81
297.81
297.81
297.81
297.81
297.81
297.809
297.809
297.809
297.809
297.809
297.809
297.809
297.809
297.809
297.809
297.809
297.809
297.809
297.809
297.809
297.809
297.809
297.809
297.809
297.809
297.808
297.808
297.808
297.808
297.808
297.808
297.808
297.808
297.808
297.808
297.808
297.808
297.808
297.808
297.807
297.807
297.807
297.807
297.807
297.807
297.807
297.807
297.807
297.807
297.806
297.806
297.806
297.806
297.806
297.806
297.806
297.806
297.806
297.805
297.805
297.805
297.805
297.805
297.805
297.805
297.805
297.804
297.804
297.804
297.804
297.804
297.804
297.804
297.804
297.803
297.803
297.803
297.803
297.803
297.803
297.803
297.802
297.802
297.802
297.802
297.802
297.802
297.802
297.801
297.801
297.801
297.801
297.801
297.801
297.801
297.801
297.8
297.8
297.8
297.8
297.8
297.8
297.8
297.8
297.799
297.799
297.799
297.799
297.799
297.799
297.799
297.799
297.799
297.798
297.798
297.798
297.798
297.798
297.798
297.798
297.798
297.798
297.798
297.797
297.797
297.797
297.797
297.797
297.797
297.797
297.797
297.797
297.797
297.797
297.797
297.796
297.796
297.796
297.796
297.796
297.796
297.796
297.796
297.796
297.796
297.796
297.796
297.796
297.796
297.796
297.796
297.795
297.795
297.795
297.795
297.795
297.795
297.795
297.795
297.795
297.795
297.795
297.795
297.795
297.795
297.795
297.795
297.794
297.794
297.794
297.794
297.794
297.794
297.794
297.794
297.794
297.794
297.794
297.794
297.793
297.793
297.793
297.793
297.793
297.793
297.793
297.793
297.793
297.792
297.792
297.792
297.792
297.792
297.792
297.791
297.791
297.791
297.791
297.791
297.791
297.79
297.79
297.79
297.79
297.79
297.789
297.789
297.789
297.789
297.788
297.788
297.788
297.788
297.787
297.787
297.787
297.786
297.786
297.786
297.786
297.785
297.785
297.785
297.784
297.784
297.784
297.783
297.783
297.783
297.782
297.782
297.782
297.781
297.781
297.78
297.78
297.78
297.779
297.779
297.779
297.778
297.778
297.777
297.777
297.777
297.776
297.776
297.775
297.775
297.775
297.774
297.774
297.774
297.773
297.773
297.772
297.772
297.772
297.771
297.771
297.771
297.77
297.77
297.769
297.769
297.769
297.768
297.768
297.768
297.768
297.767
297.767
297.767
297.766
297.766
297.766
297.766
297.765
297.765
297.765
297.765
297.764
297.764
297.764
297.764
297.764
297.764
297.763
297.763
297.763
297.763
297.763
297.763
297.763
297.763
297.763
297.763
297.763
297.763
297.439
297.438
297.438
297.437
297.437
297.436
297.435
297.434
297.432
297.431
297.429
297.427
297.426
297.423
297.421
297.419
297.417
297.414
297.412
297.409
297.407
297.404
297.402
297.399
297.396
297.393
297.391
297.388
297.385
297.383
297.38
297.377
297.375
297.372
297.37
297.367
297.365
297.363
297.361
297.359
297.356
297.354
297.353
297.351
297.349
297.347
297.346
297.344
297.343
297.341
297.34
297.339
297.337
297.336
297.335
297.334
297.333
297.332
297.331
297.331
297.33
297.329
297.329
297.328
297.327
297.327
297.327
297.326
297.326
297.325
297.325
297.325
297.324
297.324
297.324
297.324
297.323
297.323
297.323
297.323
297.323
297.323
297.322
297.322
297.322
297.322
297.322
297.322
297.322
297.322
297.322
297.322
297.322
297.322
297.322
297.321
297.321
297.321
297.321
297.321
297.321
297.321
297.321
297.321
297.321
297.321
297.321
297.321
297.321
297.321
297.321
297.321
297.321
297.321
297.321
297.321
297.321
297.321
297.321
297.321
297.321
297.321
297.321
297.321
297.321
297.321
297.321
297.321
297.321
297.321
297.321
297.321
297.321
297.32
297.32
297.32
297.32
297.32
297.32
297.32
297.32
297.32
297.32
297.32
297.32
297.32
297.32
297.32
297.32
297.32
297.32
297.32
297.32
297.32
297.32
297.32
297.32
297.32
297.32
297.32
297.32
297.32
297.32
297.32
297.32
297.32
297.32
297.32
297.32
297.32
297.32
297.32
297.32
297.32
297.32
297.32
297.32
297.32
297.32
297.32
297.32
297.319
297.319
297.319
297.319
297.319
297.319
297.319
297.319
297.319
297.319
297.319
297.319
297.319
297.319
297.319
297.319
297.319
297.319
297.319
297.319
297.319
297.319
297.319
297.319
297.319
297.319
297.319
297.319
297.319
297.319
297.319
297.319
297.319
297.319
297.319
297.319
297.319
297.318
297.318
297.318
297.318
297.318
297.318
297.318
297.318
297.318
297.318
297.318
297.318
297.318
297.318
297.318
297.318
297.318
297.318
297.318
297.318
297.317
297.317
297.317
297.317
297.317
297.317
297.317
297.317
297.317
297.317
297.317
297.317
297.317
297.316
297.316
297.316
297.316
297.316
297.316
297.316
297.316
297.316
297.316
297.316
297.315
297.315
297.315
297.315
297.315
297.315
297.315
297.315
297.315
297.314
297.314
297.314
297.314
297.314
297.314
297.314
297.314
297.313
297.313
297.313
297.313
297.313
297.313
297.313
297.313
297.312
297.312
297.312
297.312
297.312
297.312
297.312
297.311
297.311
297.311
297.311
297.311
297.311
297.311
297.311
297.31
297.31
297.31
297.31
297.31
297.31
297.31
297.309
297.309
297.309
297.309
297.309
297.309
297.309
297.309
297.308
297.308
297.308
297.308
297.308
297.308
297.308
297.308
297.308
297.307
297.307
297.307
297.307
297.307
297.307
297.307
297.307
297.307
297.307
297.306
297.306
297.306
297.306
297.306
297.306
297.306
297.306
297.306
297.306
297.306
297.306
297.305
297.305
297.305
297.305
297.305
297.305
297.305
297.305
297.305
297.305
297.305
297.305
297.305
297.305
297.305
297.305
297.304
297.304
297.304
297.304
297.304
297.304
297.304
297.304
297.304
297.304
297.304
297.304
297.304
297.304
297.304
297.304
297.303
297.303
297.303
297.303
297.303
297.303
297.303
297.303
297.303
297.303
297.303
297.303
297.302
297.302
297.302
297.302
297.302
297.302
297.302
297.302
297.302
297.301
297.301
297.301
297.301
297.301
297.301
297.3
297.3
297.3
297.3
297.3
297.3
297.299
297.299
297.299
297.299
297.299
297.298
297.298
297.298
297.298
297.297
297.297
297.297
297.297
297.296
297.296
297.296
297.295
297.295
297.295
297.295
297.294
297.294
297.294
297.293
297.293
297.293
297.292
297.292
297.292
297.291
297.291
297.291
297.29
297.29
297.289
297.289
297.289
297.288
297.288
297.288
297.287
297.287
297.286
297.286
297.286
297.285
297.285
297.284
297.284
297.284
297.283
297.283
297.283
297.282
297.282
297.281
297.281
297.281
297.28
297.28
297.28
297.279
297.279
297.278
297.278
297.278
297.277
297.277
297.277
297.277
297.276
297.276
297.276
297.275
297.275
297.275
297.275
297.274
297.274
297.274
297.274
297.273
297.273
297.273
297.273
297.273
297.273
297.272
297.272
297.272
297.272
297.272
297.272
297.272
297.272
297.272
297.272
297.272
297.272
296.949
296.949
296.948
296.948
296.947
296.946
296.945
296.944
296.942
296.941
296.939
296.937
296.936
296.934
296.931
296.929
296.927
296.924
296.922
296.919
296.917
296.914
296.911
296.909
296.906
296.903
296.9
296.898
296.895
296.892
296.89
296.887
296.884
296.882
296.879
296.877
296.875
296.872
296.87
296.868
296.866
296.864
296.862
296.86
296.858
296.857
296.855
296.854
296.852
296.851
296.849
296.848
296.847
296.846
296.845
296.844
296.843
296.842
296.841
296.84
296.84
296.839
296.838
296.838
296.837
296.837
296.836
296.836
296.835
296.835
296.835
296.834
296.834
296.834
296.834
296.833
296.833
296.833
296.833
296.833
296.833
296.833
296.832
296.832
296.832
296.832
296.832
296.832
296.832
296.832
296.832
296.832
296.832
296.832
296.832
296.831
296.831
296.831
296.831
296.831
296.831
296.831
296.831
296.831
296.831
296.831
296.831
296.831
296.831
296.831
296.831
296.831
296.831
296.831
296.831
296.831
296.831
296.831
296.831
296.831
296.831
296.831
296.831
296.831
296.831
296.831
296.831
296.831
296.831
296.831
296.831
296.831
296.831
296.83
296.83
296.83
296.83
296.83
296.83
296.83
296.83
296.83
296.83
296.83
296.83
296.83
296.83
296.83
296.83
296.83
296.83
296.83
296.83
296.83
296.83
296.83
296.83
296.83
296.83
296.83
296.83
296.83
296.83
296.83
296.83
296.83
296.83
296.83
296.83
296.83
296.83
296.83
296.83
296.83
296.83
296.83
296.83
296.83
296.83
296.83
296.83
296.829
296.829
296.829
296.829
296.829
296.829
296.829
296.829
296.829
296.829
296.829
296.829
296.829
296.829
296.829
296.829
296.829
296.829
296.829
296.829
296.829
296.829
296.829
296.829
296.829
296.829
296.829
296.829
296.829
296.829
296.829
296.829
296.829
296.829
296.829
296.829
296.828
296.828
296.828
296.828
296.828
296.828
296.828
296.828
296.828
296.828
296.828
296.828
296.828
296.828
296.828
296.828
296.828
296.828
296.828
296.828
296.828
296.827
296.827
296.827
296.827
296.827
296.827
296.827
296.827
296.827
296.827
296.827
296.827
296.827
296.826
296.826
296.826
296.826
296.826
296.826
296.826
296.826
296.826
296.826
296.826
296.825
296.825
296.825
296.825
296.825
296.825
296.825
296.825
296.825
296.824
296.824
296.824
296.824
296.824
296.824
296.824
296.824
296.823
296.823
296.823
296.823
296.823
296.823
296.823
296.823
296.822
296.822
296.822
296.822
296.822
296.822
296.822
296.821
296.821
296.821
296.821
296.821
296.821
296.821
296.821
296.82
296.82
296.82
296.82
296.82
296.82
296.82
296.819
296.819
296.819
296.819
296.819
296.819
296.819
296.819
296.818
296.818
296.818
296.818
296.818
296.818
296.818
296.818
296.818
296.817
296.817
296.817
296.817
296.817
296.817
296.817
296.817
296.817
296.817
296.816
296.816
296.816
296.816
296.816
296.816
296.816
296.816
296.816
296.816
296.816
296.816
296.815
296.815
296.815
296.815
296.815
296.815
296.815
296.815
296.815
296.815
296.815
296.815
296.815
296.815
296.815
296.815
296.814
296.814
296.814
296.814
296.814
296.814
296.814
296.814
296.814
296.814
296.814
296.814
296.814
296.814
296.814
296.814
296.813
296.813
296.813
296.813
296.813
296.813
296.813
296.813
296.813
296.813
296.813
296.813
296.812
296.812
296.812
296.812
296.812
296.812
296.812
296.812
296.812
296.811
296.811
296.811
296.811
296.811
296.811
296.81
296.81
296.81
296.81
296.81
296.81
296.809
296.809
296.809
296.809
296.809
296.808
296.808
296.808
296.808
296.807
296.807
296.807
296.807
296.806
296.806
296.806
296.805
296.805
296.805
296.805
296.804
296.804
296.804
296.803
296.803
296.803
296.802
296.802
296.802
296.801
296.801
296.801
296.8
296.8
296.799
296.799
296.799
296.798
296.798
296.798
296.797
296.797
296.796
296.796
296.796
296.795
296.795
296.794
296.794
296.794
296.793
296.793
296.793
296.792
296.792
296.791
296.791
296.791
296.79
296.79
296.79
296.789
296.789
296.788
296.788
296.788
296.787
296.787
296.787
296.786
296.786
296.786
296.786
296.785
296.785
296.785
296.785
296.784
296.784
296.784
296.784
296.783
296.783
296.783
296.783
296.783
296.783
296.782
296.782
296.782
296.782
296.782
296.782
296.782
296.782
296.782
296.782
296.782
296.782
296.458
296.458
296.458
296.457
296.456
296.456
296.454
296.453
296.452
296.45
296.449
296.447
296.445
296.443
296.441
296.438
296.436
296.433
296.431
296.428
296.426
296.423
296.42
296.417
296.415
296.412
296.409
296.406
296.404
296.401
296.398
296.396
296.393
296.391
296.388
296.386
296.383
296.381
296.379
296.377
296.374
296.372
296.371
296.369
296.367
296.365
296.364
296.362
296.361
296.359
296.358
296.357
296.355
296.354
296.353
296.352
296.351
296.351
296.35
296.349
296.348
296.348
296.347
296.346
296.346
296.345
296.345
296.345
296.344
296.344
296.344
296.343
296.343
296.343
296.342
296.342
296.342
296.342
296.342
296.342
296.341
296.341
296.341
296.341
296.341
296.341
296.341
296.341
296.341
296.341
296.341
296.341
296.341
296.34
296.34
296.34
296.34
296.34
296.34
296.34
296.34
296.34
296.34
296.34
296.34
296.34
296.34
296.34
296.34
296.34
296.34
296.34
296.34
296.34
296.34
296.34
296.34
296.34
296.34
296.34
296.34