/*--------------------------------*- C++ -*----------------------------------*\
| =========                 |                                                 |
| \\      /  F ield         | OpenFOAM: The Open Source CFD Toolbox           |
|  \\    /   O peration     | Version:  v2012                                 |
|   \\  /    A nd           | Website:  www.openfoam.com                      |
|    \\/     M anipulation  |                                                 |
\*---------------------------------------------------------------------------*/
FoamFile
{
    version     2.0;
    format      ascii;
    class       volScalarField;
    location    "100";
    object      theta;
}
// * * * * * * * * * * * * * * * * * * * * * * * * * * * * * * * * * * * * * //

dimensions      [0 0 0 1 0 0 0];


internalField   nonuniform List<scalar> 
65536
(
0.136276
0.135896
0.13558
0.13502
0.134324
0.133463
0.132446
0.131276
0.129957
0.128495
0.126896
0.125167
0.123315
0.121347
0.119274
0.117102
0.114841
0.112499
0.110087
0.107613
0.105086
0.102515
0.0999095
0.0972777
0.0946287
0.0919701
0.0893107
0.0866572
0.0840178
0.0813987
0.0788069
0.0762479
0.073728
0.0712517
0.0688242
0.0664494
0.0641316
0.0618735
0.0596787
0.0575491
0.0554874
0.0534945
0.0515723
0.0497213
0.0479425
0.0462359
0.0446015
0.043039
0.0415478
0.040127
0.0387757
0.0374923
0.0362757
0.0351241
0.0340358
0.0330089
0.0320415
0.0311313
0.0302765
0.0294746
0.0287237
0.0280212
0.0273652
0.0267533
0.0261832
0.0256528
0.02516
0.0247025
0.0242784
0.0238855
0.0235221
0.0231861
0.0228759
0.0225895
0.0223255
0.0220821
0.021858
0.0216516
0.0214616
0.0212868
0.021126
0.020978
0.0208417
0.0207163
0.0206007
0.0204941
0.0203958
0.0203049
0.0202209
0.020143
0.0200708
0.0200037
0.0199411
0.0198828
0.0198281
0.0197769
0.0197287
0.0196833
0.0196403
0.0195995
0.0195607
0.0195237
0.0194884
0.0194544
0.0194218
0.0193903
0.0193598
0.0193303
0.0193016
0.0192737
0.0192464
0.0192198
0.0191937
0.0191681
0.019143
0.0191183
0.019094
0.01907
0.0190463
0.0190229
0.0189998
0.018977
0.0189543
0.0189319
0.0189097
0.0188876
0.0188657
0.018844
0.0188224
0.018801
0.0187797
0.0187585
0.0187374
0.0187165
0.0186956
0.0186748
0.0186541
0.0186335
0.0186129
0.0185924
0.018572
0.0185516
0.0185313
0.018511
0.0184907
0.0184705
0.0184502
0.0184301
0.0184099
0.0183897
0.0183696
0.0183494
0.0183293
0.0183091
0.0182889
0.0182688
0.0182486
0.0182284
0.0182082
0.018188
0.0181677
0.0181474
0.0181271
0.0181068
0.0180864
0.018066
0.0180456
0.0180251
0.0180046
0.017984
0.0179634
0.0179428
0.0179221
0.0179014
0.0178806
0.0178597
0.0178388
0.0178178
0.0177967
0.0177756
0.0177544
0.017733
0.0177116
0.0176901
0.0176685
0.0176467
0.0176248
0.0176028
0.0175806
0.0175582
0.0175357
0.017513
0.01749
0.0174668
0.0174434
0.0174197
0.0173958
0.0173715
0.0173469
0.017322
0.0172967
0.017271
0.0172449
0.0172183
0.0171913
0.0171638
0.0171358
0.0171072
0.017078
0.0170482
0.0170178
0.0169867
0.0169548
0.0169222
0.0168889
0.0168547
0.0168197
0.0167837
0.0167469
0.0167091
0.0166703
0.0166304
0.0165895
0.0165475
0.0165043
0.01646
0.0164144
0.0163676
0.0163195
0.0162701
0.0162193
0.0161671
0.0161135
0.0160584
0.0160018
0.0159437
0.0158841
0.0158228
0.01576
0.0156955
0.0156294
0.0155616
0.0154921
0.0154209
0.0153479
0.0152732
0.0151967
0.0151184
0.0150383
0.0149564
0.0148727
0.0147872
0.0146999
0.0146108
0.0145198
0.0144271
0.0143325
0.0142361
0.0141379
0.014038
0.0139363
0.0138329
0.0137278
0.0136209
0.0135124
0.0134023
0.0132905
0.0131771
0.0130622
0.0129458
0.0128279
0.0127086
0.0125879
0.0124659
0.0123425
0.0122179
0.0120921
0.0119651
0.0118371
0.011708
0.0115779
0.0114469
0.011315
0.0111824
0.011049
0.0109149
0.0107802
0.0106449
0.0105091
0.010373
0.0102365
0.0100997
0.00996266
0.0098255
0.00968826
0.00955101
0.00941382
0.00927675
0.00913988
0.00900328
0.00886701
0.00873113
0.00859572
0.00846084
0.00832656
0.00819293
0.00806003
0.00792791
0.00779664
0.00766628
0.00753688
0.0074085
0.0072812
0.00715503
0.00703004
0.00690628
0.0067838
0.00666265
0.00654287
0.00642451
0.0063076
0.00619218
0.00607829
0.00596596
0.00585522
0.0057461
0.00563863
0.00553283
0.00542871
0.0053263
0.00522561
0.00512664
0.00502942
0.00493395
0.00484022
0.00474824
0.004658
0.00456949
0.00448271
0.00439764
0.00431426
0.00423255
0.00415249
0.00407406
0.0039972
0.00392191
0.00384812
0.00377581
0.00370493
0.00363542
0.00356724
0.00350033
0.00343463
0.00337007
0.00330659
0.00324412
0.00318259
0.0031219
0.003062
0.00300279
0.00294417
0.00288608
0.0028284
0.00277104
0.00271391
0.0026569
0.0025999
0.0025428
0.0024855
0.00242787
0.00236982
0.0023112
0.00225191
0.00219182
0.00213081
0.00206875
0.00200551
0.00194096
0.00187497
0.00180741
0.00173815
0.00166704
0.00159396
0.00151877
0.00144133
0.00136151
0.00127917
0.00119417
0.00110638
0.00101566
0.000921875
0.000824896
0.000724587
0.000620818
0.000513458
0.000402378
0.000287453
0.000168559
4.55732e-05
-8.16231e-05
-0.000213146
-0.00034911
-0.000489625
-0.000634797
-0.00078473
-0.000939523
-0.00109927
-0.00126407
-0.00143399
-0.00160913
-0.00178957
-0.00197536
-0.00216659
-0.0023633
-0.00256556
-0.00277341
-0.0029869
-0.00320607
-0.00343094
-0.00366153
-0.00389787
-0.00413996
-0.00438781
-0.00464141
-0.00490075
-0.00516581
-0.00543656
-0.00571297
-0.00599499
-0.00628257
-0.00657565
-0.00687417
-0.00717804
-0.00748719
-0.00780152
-0.00812093
-0.00844531
-0.00877453
-0.00910849
-0.00944703
-0.00979002
-0.0101373
-0.0104887
-0.0108441
-0.0112033
-0.011566
-0.0119322
-0.0123016
-0.012674
-0.0130491
-0.0134269
-0.0138069
-0.0141891
-0.014573
-0.0149586
-0.0153455
-0.0157335
-0.0161223
-0.0165115
-0.0169011
-0.0172905
-0.0176797
-0.0180682
-0.0184557
-0.018842
-0.0192268
-0.0196097
-0.0199905
-0.0203687
-0.0207442
-0.0211165
-0.0214854
-0.0218505
-0.0222115
-0.0225682
-0.0229201
-0.023267
-0.0236085
-0.0239443
-0.0242742
-0.0245978
-0.0249148
-0.0252249
-0.0255278
-0.0258232
-0.0261109
-0.0263905
-0.0266618
-0.0269245
-0.0271783
-0.0274231
-0.0276585
-0.0278843
-0.0281003
-0.0283063
-0.028502
-0.0286873
-0.028862
-0.0290258
-0.0291787
-0.0293204
-0.0294509
-0.0295699
-0.0296774
-0.0297732
-0.0298572
-0.0299294
-0.0299897
-0.030038
-0.0300743
-0.0300984
-0.0301104
0.135802
0.135536
0.135185
0.134645
0.13398
0.13313
0.132136
0.130975
0.129673
0.128219
0.126633
0.124911
0.12307
0.12111
0.119045
0.116881
0.114628
0.112293
0.109888
0.10742
0.1049
0.102335
0.0997356
0.0971095
0.094466
0.0918128
0.0891584
0.08651
0.0838752
0.0812606
0.0786731
0.0761183
0.0736022
0.0711296
0.0687056
0.0663341
0.0640192
0.0617641
0.0595717
0.0574446
0.0553845
0.0533937
0.0514728
0.0496233
0.0478454
0.0461396
0.0445056
0.0429433
0.0414519
0.0400307
0.0386785
0.0373941
0.036176
0.0350227
0.0339323
0.0329032
0.031933
0.0310201
0.030162
0.0293568
0.0286021
0.0278959
0.0272357
0.0266194
0.0260447
0.0255096
0.0250118
0.0245493
0.0241199
0.0237217
0.0233528
0.0230112
0.0226953
0.0224032
0.0221333
0.0218841
0.0216541
0.0214418
0.0212459
0.0210652
0.0208984
0.0207445
0.0206024
0.0204711
0.0203498
0.0202375
0.0201335
0.020037
0.0199475
0.0198642
0.0197867
0.0197142
0.0196465
0.0195831
0.0195235
0.0194673
0.0194143
0.0193642
0.0193166
0.0192714
0.0192282
0.0191869
0.0191473
0.0191093
0.0190726
0.0190372
0.0190029
0.0189697
0.0189374
0.0189059
0.0188752
0.0188452
0.0188159
0.0187871
0.0187589
0.0187311
0.0187038
0.018677
0.0186505
0.0186244
0.0185986
0.0185732
0.018548
0.0185232
0.0184985
0.0184742
0.01845
0.0184261
0.0184024
0.0183789
0.0183555
0.0183324
0.0183094
0.0182865
0.0182638
0.0182412
0.0182188
0.0181965
0.0181743
0.0181522
0.0181302
0.0181083
0.0180865
0.0180647
0.0180431
0.0180214
0.0179999
0.0179784
0.017957
0.0179356
0.0179142
0.0178929
0.0178716
0.0178503
0.0178291
0.0178079
0.0177867
0.0177655
0.0177443
0.0177231
0.0177019
0.0176807
0.0176595
0.0176383
0.0176171
0.0175959
0.0175746
0.0175534
0.0175321
0.0175108
0.0174895
0.0174681
0.0174467
0.0174253
0.0174038
0.0173823
0.0173608
0.0173392
0.0173175
0.0172958
0.017274
0.0172521
0.0172301
0.0172081
0.0171859
0.0171636
0.0171412
0.0171187
0.017096
0.0170732
0.0170502
0.017027
0.0170036
0.01698
0.0169562
0.0169321
0.0169077
0.0168831
0.0168581
0.0168328
0.0168071
0.0167811
0.0167546
0.0167277
0.0167004
0.0166725
0.0166442
0.0166153
0.0165858
0.0165557
0.016525
0.0164936
0.0164614
0.0164286
0.016395
0.0163605
0.0163252
0.0162891
0.016252
0.0162139
0.0161749
0.0161349
0.0160937
0.0160515
0.0160081
0.0159636
0.0159179
0.0158708
0.0158226
0.015773
0.015722
0.0156697
0.0156159
0.0155607
0.0155039
0.0154457
0.015386
0.0153246
0.0152617
0.0151971
0.0151309
0.015063
0.0149934
0.014922
0.014849
0.0147742
0.0146976
0.0146193
0.0145391
0.0144572
0.0143735
0.0142879
0.0142006
0.0141114
0.0140204
0.0139276
0.013833
0.0137366
0.0136385
0.0135385
0.0134368
0.0133334
0.0132283
0.0131214
0.0130129
0.0129028
0.0127911
0.0126777
0.0125629
0.0124465
0.0123286
0.0122093
0.0120887
0.0119667
0.0118433
0.0117188
0.011593
0.0114661
0.0113381
0.0112091
0.011079
0.0109481
0.0108163
0.0106837
0.0105503
0.0104163
0.0102816
0.0101464
0.0100107
0.00987459
0.00973813
0.00960139
0.00946443
0.00932732
0.00919013
0.00905293
0.00891579
0.00877877
0.00864195
0.00850539
0.00836916
0.00823333
0.00809796
0.00796312
0.00782888
0.00769529
0.00756242
0.00743034
0.0072991
0.00716876
0.00703939
0.00691103
0.00678375
0.00665759
0.00653262
0.00640888
0.00628641
0.00616527
0.0060455
0.00592714
0.00581023
0.00569481
0.00558092
0.00546859
0.00535784
0.00524871
0.00514123
0.00503541
0.00493127
0.00482884
0.00472813
0.00462915
0.0045319
0.0044364
0.00434264
0.00425063
0.00416036
0.00407182
0.003985
0.00389989
0.00381648
0.00373473
0.00365463
0.00357615
0.00349925
0.00342391
0.00335008
0.00327772
0.00320679
0.00313723
0.003069
0.00300204
0.00293629
0.00287168
0.00280815
0.00274563
0.00268404
0.0026233
0.00256334
0.00250408
0.00244542
0.00238727
0.00232954
0.00227213
0.00221495
0.00215788
0.00210083
0.00204369
0.00198634
0.00192867
0.00187056
0.00181191
0.00175257
0.00169244
0.00163139
0.00156929
0.00150601
0.00144143
0.00137541
0.00130782
0.00123852
0.00116738
0.00109428
0.00101906
0.000941599
0.000861756
0.000779394
0.000694379
0.000606572
0.00051584
0.000422048
0.000325061
0.000224746
0.000120973
1.36112e-05
-9.74675e-05
-0.000212389
-0.000331279
-0.000454257
-0.000581444
-0.000712956
-0.000848906
-0.000989405
-0.00113456
-0.00128447
-0.00143925
-0.00159897
-0.00176374
-0.00193364
-0.00210876
-0.00228916
-0.00247493
-0.00266612
-0.0028628
-0.00306503
-0.00327285
-0.0034863
-0.00370543
-0.00393026
-0.00416082
-0.00439712
-0.00463918
-0.00488699
-0.00514056
-0.00539986
-0.00566488
-0.0059356
-0.00621197
-0.00649396
-0.00678151
-0.00707456
-0.00737304
-0.00767689
-0.00798601
-0.00830031
-0.00861969
-0.00894405
-0.00927326
-0.00960719
-0.00994572
-0.0102887
-0.010636
-0.0109874
-0.0113427
-0.0117019
-0.0120647
-0.0124309
-0.0128002
-0.0131726
-0.0135478
-0.0139255
-0.0143056
-0.0146878
-0.0150718
-0.0154574
-0.0158443
-0.0162323
-0.0166211
-0.0170104
-0.0174
-0.0177895
-0.0181787
-0.0185672
-0.0189548
-0.0193412
-0.019726
-0.020109
-0.0204898
-0.0208681
-0.0212436
-0.021616
-0.0219849
-0.0223501
-0.0227112
-0.0230679
-0.0234199
-0.0237668
-0.0241084
-0.0244443
-0.0247742
-0.0250979
-0.0254149
-0.0257251
-0.0260281
-0.0263236
-0.0266113
-0.026891
-0.0271623
-0.0274251
-0.027679
-0.0279238
-0.0281593
-0.0283852
-0.0286012
-0.0288073
-0.029003
-0.0291884
-0.0293631
-0.029527
-0.0296799
-0.0298217
-0.0299522
-0.0300712
-0.0301787
-0.0302746
-0.0303587
-0.0304309
-0.0304912
-0.0305395
-0.0305759
-0.0306001
-0.0306123
0.13604
0.135961
0.135606
0.135095
0.134411
0.133558
0.132546
0.131376
0.130058
0.128593
0.126992
0.125259
0.123404
0.121432
0.119354
0.117177
0.114912
0.112565
0.110148
0.107669
0.105137
0.102561
0.099951
0.0973148
0.0946617
0.0919994
0.0893366
0.0866802
0.0840382
0.0814169
0.0788235
0.0762633
0.0737426
0.0712661
0.0688388
0.0664648
0.064148
0.0618917
0.0596987
0.0575717
0.0555126
0.0535233
0.0516047
0.0497581
0.0479836
0.0462819
0.0446525
0.0430952
0.0416093
0.040194
0.038848
0.0375701
0.0363588
0.0352125
0.0341293
0.0331074
0.0321447
0.0312392
0.0303887
0.029591
0.0288438
0.0281451
0.0274923
0.0268834
0.026316
0.0257881
0.0252973
0.0248417
0.024419
0.0240275
0.023665
0.0233297
0.0230198
0.0227336
0.0224695
0.0222258
0.0220011
0.021794
0.0216031
0.0214272
0.0212651
0.0211156
0.0209778
0.0208507
0.0207333
0.0206249
0.0205246
0.0204317
0.0203455
0.0202655
0.0201911
0.0201218
0.020057
0.0199963
0.0199394
0.0198859
0.0198354
0.0197877
0.0197425
0.0196994
0.0196584
0.0196192
0.0195817
0.0195456
0.0195108
0.0194772
0.0194447
0.0194131
0.0193825
0.0193526
0.0193234
0.0192949
0.019267
0.0192396
0.0192127
0.0191863
0.0191603
0.0191346
0.0191093
0.0190844
0.0190597
0.0190354
0.0190112
0.0189874
0.0189637
0.0189403
0.0189171
0.0188941
0.0188712
0.0188486
0.018826
0.0188037
0.0187814
0.0187593
0.0187374
0.0187155
0.0186937
0.0186721
0.0186505
0.0186291
0.0186077
0.0185863
0.0185651
0.0185439
0.0185228
0.0185017
0.0184806
0.0184596
0.0184387
0.0184177
0.0183968
0.0183759
0.0183551
0.0183342
0.0183134
0.0182925
0.0182717
0.0182508
0.01823
0.0182091
0.0181882
0.0181673
0.0181465
0.0181255
0.0181046
0.0180836
0.0180627
0.0180417
0.0180206
0.0179996
0.0179784
0.0179573
0.0179361
0.0179149
0.0178936
0.0178723
0.0178509
0.0178295
0.0178079
0.0177864
0.0177647
0.0177429
0.0177211
0.0176992
0.0176771
0.017655
0.0176327
0.0176102
0.0175876
0.0175649
0.017542
0.0175188
0.0174955
0.017472
0.0174482
0.0174241
0.0173998
0.0173752
0.0173503
0.017325
0.0172994
0.0172733
0.0172469
0.01722
0.0171927
0.0171649
0.0171365
0.0171076
0.0170781
0.0170481
0.0170173
0.0169859
0.0169538
0.016921
0.0168873
0.0168529
0.0168176
0.0167814
0.0167444
0.0167063
0.0166673
0.0166272
0.0165861
0.0165439
0.0165006
0.016456
0.0164103
0.0163633
0.016315
0.0162654
0.0162145
0.0161622
0.0161084
0.0160533
0.0159966
0.0159384
0.0158787
0.0158174
0.0157545
0.01569
0.0156238
0.015556
0.0154864
0.0154152
0.0153422
0.0152675
0.015191
0.0151128
0.0150327
0.0149509
0.0148673
0.0147818
0.0146946
0.0146055
0.0145147
0.014422
0.0143276
0.0142313
0.0141333
0.0140335
0.013932
0.0138287
0.0137238
0.0136171
0.0135088
0.0133988
0.0132872
0.0131741
0.0130594
0.0129432
0.0128255
0.0127064
0.0125859
0.0124641
0.012341
0.0122166
0.0120911
0.0119643
0.0118365
0.0117077
0.0115779
0.0114471
0.0113155
0.0111831
0.0110499
0.0109161
0.0107816
0.0106466
0.0105111
0.0103752
0.0102389
0.0101023
0.00996553
0.00982859
0.00969158
0.00955454
0.00941756
0.00928071
0.00914404
0.00900763
0.00887155
0.00873586
0.00860062
0.00846592
0.00833179
0.00819833
0.00806558
0.0079336
0.00780247
0.00767223
0.00754295
0.00741468
0.00728748
0.00716141
0.0070365
0.00691282
0.00679042
0.00666933
0.00654961
0.00643129
0.00631442
0.00619903
0.00608516
0.00597284
0.00586211
0.00575299
0.00564551
0.00553969
0.00543555
0.00533311
0.00523238
0.00513337
0.0050361
0.00494056
0.00484677
0.00475472
0.0046644
0.00457581
0.00448894
0.00440377
0.0043203
0.00423849
0.00415832
0.00407977
0.0040028
0.00392738
0.00385347
0.00378103
0.00371001
0.00364037
0.00357205
0.003505
0.00343916
0.00337445
0.00331083
0.00324821
0.00318652
0.00312569
0.00306564
0.00300627
0.00294751
0.00288926
0.00283143
0.00277393
0.00271665
0.00265948
0.00260234
0.0025451
0.00248765
0.00242989
0.00237169
0.00231294
0.00225352
0.0021933
0.00213217
0.00206998
0.00200662
0.00194196
0.00187586
0.0018082
0.00173883
0.00166763
0.00159446
0.00151918
0.00144166
0.00136177
0.00127935
0.00119429
0.00110644
0.00101567
0.000921845
0.000824826
0.000724484
0.000620688
0.000513307
0.000402213
0.00028728
0.000168383
4.54011e-05
-8.17853e-05
-0.000213293
-0.000349235
-0.000489722
-0.000634861
-0.000784756
-0.000939505
-0.0010992
-0.00126395
-0.00143381
-0.00160889
-0.00178926
-0.00197499
-0.00216614
-0.00236277
-0.00256495
-0.00277273
-0.00298613
-0.00320521
-0.00342999
-0.0036605
-0.00389675
-0.00413875
-0.00438651
-0.00464003
-0.00489928
-0.00516425
-0.00543492
-0.00571124
-0.00599318
-0.00628069
-0.0065737
-0.00687215
-0.00717596
-0.00748505
-0.00779932
-0.00811868
-0.00844302
-0.00877221
-0.00910613
-0.00944465
-0.00978762
-0.0101349
-0.0104863
-0.0108417
-0.0112009
-0.0115637
-0.0119299
-0.0122993
-0.0126717
-0.0130469
-0.0134247
-0.0138049
-0.0141871
-0.0145711
-0.0149568
-0.0153438
-0.0157319
-0.0161208
-0.0165102
-0.0168999
-0.0172895
-0.0176788
-0.0180674
-0.0184551
-0.0188416
-0.0192266
-0.0196097
-0.0199906
-0.020369
-0.0207447
-0.0211172
-0.0214863
-0.0218516
-0.0222129
-0.0225697
-0.0229218
-0.0232689
-0.0236107
-0.0239467
-0.0242768
-0.0246006
-0.0249178
-0.0252281
-0.0255312
-0.0258269
-0.0261147
-0.0263946
-0.026666
-0.0269289
-0.027183
-0.0274279
-0.0276635
-0.0278895
-0.0281057
-0.0283118
-0.0285077
-0.0286931
-0.0288679
-0.0290319
-0.0291849
-0.0293267
-0.0294573
-0.0295764
-0.029684
-0.0297799
-0.029864
-0.0299363
-0.0299966
-0.0300449
-0.0300813
-0.0301055
-0.0301177
0.135913
0.135695
0.135339
0.134816
0.134125
0.13327
0.132253
0.131079
0.129754
0.128283
0.126673
0.124931
0.123065
0.121082
0.118992
0.116802
0.114523
0.112163
0.109732
0.107238
0.104692
0.102101
0.0994764
0.0968256
0.094158
0.0914813
0.0888044
0.0861342
0.0834788
0.0808447
0.0782387
0.0756666
0.0731345
0.0706472
0.0682097
0.0658261
0.0635003
0.0612358
0.0590353
0.0569013
0.054836
0.052841
0.0509175
0.0490665
0.0472884
0.0455835
0.0439516
0.0423924
0.0409051
0.0394889
0.0381426
0.0368649
0.0356543
0.034509
0.0334273
0.0324072
0.0314467
0.0305437
0.0296959
0.0289012
0.0281573
0.0274619
0.0268128
0.0262075
0.025644
0.02512
0.0246332
0.0241816
0.0237631
0.0233756
0.0230172
0.022686
0.0223801
0.022098
0.0218378
0.0215981
0.0213772
0.0211739
0.0209867
0.0208144
0.0206559
0.0205099
0.0203754
0.0202516
0.0201374
0.0200321
0.0199348
0.0198448
0.0197615
0.0196843
0.0196126
0.0195458
0.0194835
0.0194253
0.0193707
0.0193194
0.0192712
0.0192256
0.0191824
0.0191413
0.0191022
0.0190649
0.0190291
0.0189947
0.0189616
0.0189296
0.0188987
0.0188686
0.0188394
0.0188109
0.0187831
0.0187559
0.0187292
0.0187031
0.0186774
0.0186521
0.0186271
0.0186026
0.0185783
0.0185543
0.0185306
0.0185072
0.0184839
0.0184609
0.0184381
0.0184155
0.018393
0.0183708
0.0183486
0.0183266
0.0183048
0.018283
0.0182614
0.0182399
0.0182185
0.0181972
0.018176
0.0181549
0.0181338
0.0181128
0.0180919
0.018071
0.0180502
0.0180294
0.0180087
0.017988
0.0179673
0.0179466
0.017926
0.0179054
0.0178848
0.0178642
0.0178436
0.017823
0.0178024
0.0177818
0.0177612
0.0177406
0.01772
0.0176993
0.0176787
0.017658
0.0176372
0.0176165
0.0175957
0.0175749
0.0175541
0.0175332
0.0175123
0.0174913
0.0174703
0.0174493
0.0174282
0.017407
0.0173858
0.0173646
0.0173433
0.0173219
0.0173004
0.0172789
0.0172572
0.0172355
0.0172137
0.0171918
0.0171697
0.0171476
0.0171253
0.0171028
0.0170802
0.0170574
0.0170345
0.0170113
0.016988
0.0169644
0.0169406
0.0169165
0.0168921
0.0168674
0.0168424
0.0168171
0.0167914
0.0167653
0.0167388
0.0167118
0.0166844
0.0166565
0.0166281
0.0165991
0.0165696
0.0165394
0.0165086
0.0164771
0.0164449
0.016412
0.0163783
0.0163438
0.0163084
0.0162722
0.016235
0.0161969
0.0161578
0.0161177
0.0160765
0.0160343
0.0159908
0.0159463
0.0159005
0.0158535
0.0158052
0.0157556
0.0157046
0.0156523
0.0155985
0.0155433
0.0154867
0.0154285
0.0153688
0.0153075
0.0152447
0.0151802
0.0151141
0.0150463
0.0149768
0.0149057
0.0148328
0.0147582
0.0146818
0.0146036
0.0145237
0.014442
0.0143585
0.0142732
0.0141861
0.0140972
0.0140065
0.013914
0.0138198
0.0137237
0.0136259
0.0135263
0.013425
0.0133219
0.0132171
0.0131107
0.0130026
0.0128929
0.0127816
0.0126687
0.0125542
0.0124383
0.0123209
0.012202
0.0120818
0.0119603
0.0118374
0.0117133
0.0115881
0.0114616
0.0113341
0.0112055
0.011076
0.0109455
0.0108142
0.0106821
0.0105492
0.0104156
0.0102814
0.0101467
0.0100114
0.00987579
0.00973978
0.00960348
0.00946696
0.00933028
0.00919351
0.00905673
0.00891999
0.00878337
0.00864693
0.00851075
0.00837488
0.0082394
0.00810437
0.00796986
0.00783593
0.00770264
0.00757007
0.00743826
0.00730729
0.0071772
0.00704806
0.00691993
0.00679286
0.0066669
0.00654211
0.00641853
0.00629622
0.00617521
0.00605557
0.00593731
0.0058205
0.00570517
0.00559134
0.00547906
0.00536835
0.00525925
0.00515178
0.00504596
0.00494182
0.00483936
0.00473861
0.00463958
0.00454227
0.00444669
0.00435285
0.00426074
0.00417036
0.0040817
0.00399476
0.00390952
0.00382595
0.00374405
0.00366379
0.00358513
0.00350806
0.00343253
0.00335851
0.00328595
0.00321481
0.00314505
0.0030766
0.00300942
0.00294344
0.0028786
0.00281483
0.00275207
0.00269025
0.00262927
0.00256907
0.00250956
0.00245065
0.00239226
0.00233428
0.00227663
0.0022192
0.00216189
0.0021046
0.00204721
0.00198963
0.00193172
0.00187339
0.0018145
0.00175495
0.0016946
0.00163333
0.00157102
0.00150754
0.00144276
0.00137655
0.00130877
0.0012393
0.001168
0.00109473
0.00101936
0.000941753
0.000861774
0.000779285
0.000694151
0.000606235
0.000515404
0.000421521
0.000324453
0.000224068
0.000120235
1.28221e-05
-9.82973e-05
-0.00021325
-0.00033216
-0.000455149
-0.000582337
-0.000713841
-0.000849773
-0.000990244
-0.00113536
-0.00128523
-0.00143995
-0.00159961
-0.00176431
-0.00193413
-0.00210916
-0.00228947
-0.00247514
-0.00266623
-0.0028628
-0.00306492
-0.00327262
-0.00348595
-0.00370495
-0.00392966
-0.00416009
-0.00439626
-0.00463819
-0.00488587
-0.0051393
-0.00539848
-0.00566338
-0.00593397
-0.00621022
-0.00649209
-0.00677953
-0.00707248
-0.00737087
-0.00767463
-0.00798366
-0.00829789
-0.00861721
-0.00894151
-0.00927068
-0.00960458
-0.00994308
-0.010286
-0.0106333
-0.0109847
-0.0113401
-0.0116993
-0.0120622
-0.0124284
-0.0127979
-0.0131704
-0.0135456
-0.0139235
-0.0143037
-0.014686
-0.0150702
-0.0154559
-0.0158431
-0.0162313
-0.0166203
-0.0170098
-0.0173996
-0.0177894
-0.0181788
-0.0185677
-0.0189556
-0.0193422
-0.0197274
-0.0201106
-0.0204917
-0.0208704
-0.0212462
-0.021619
-0.0219883
-0.0223538
-0.0227153
-0.0230723
-0.0234247
-0.023772
-0.0241139
-0.0244502
-0.0247805
-0.0251045
-0.0254219
-0.0257325
-0.0260358
-0.0263316
-0.0266197
-0.0268997
-0.0271714
-0.0274345
-0.0276887
-0.0279339
-0.0281696
-0.0283958
-0.0286121
-0.0288184
-0.0290145
-0.0292
-0.029375
-0.0295391
-0.0296922
-0.0298342
-0.0299648
-0.030084
-0.0301917
-0.0302877
-0.0303719
-0.0304442
-0.0305046
-0.0305529
-0.0305893
-0.0306135
-0.0306256
0.136385
0.136249
0.135896
0.135381
0.134689
0.133828
0.132805
0.131621
0.130286
0.128803
0.127181
0.125425
0.123545
0.121548
0.119443
0.117238
0.114944
0.112568
0.110121
0.107612
0.10505
0.102445
0.0998058
0.0971408
0.0944597
0.09177
0.0890809
0.0863991
0.0837331
0.0810889
0.078474
0.0758938
0.0733545
0.070861
0.0684183
0.0660305
0.0637015
0.0614346
0.0592327
0.0570983
0.0550335
0.0530398
0.0511184
0.0492703
0.0474959
0.0457954
0.0441685
0.0426149
0.0411338
0.0397243
0.0383852
0.0371151
0.0359123
0.0347752
0.033702
0.0326905
0.0317388
0.0308447
0.0300059
0.0292201
0.0284852
0.0277987
0.0271583
0.0265617
0.0260067
0.025491
0.0250124
0.0245687
0.0241578
0.0237777
0.0234265
0.0231022
0.022803
0.0225271
0.022273
0.022039
0.0218236
0.0216255
0.0214432
0.0212755
0.0211213
0.0209795
0.0208489
0.0207286
0.0206178
0.0205156
0.0204213
0.0203341
0.0202533
0.0201784
0.0201088
0.0200441
0.0199836
0.0199271
0.0198741
0.0198242
0.0197772
0.0197328
0.0196907
0.0196506
0.0196124
0.0195758
0.0195407
0.019507
0.0194744
0.0194429
0.0194124
0.0193827
0.0193538
0.0193256
0.019298
0.0192709
0.0192444
0.0192183
0.0191927
0.0191674
0.0191425
0.0191179
0.0190936
0.0190696
0.0190458
0.0190222
0.0189989
0.0189758
0.0189528
0.01893
0.0189074
0.018885
0.0188626
0.0188405
0.0188184
0.0187965
0.0187747
0.0187529
0.0187313
0.0187098
0.0186883
0.018667
0.0186457
0.0186244
0.0186033
0.0185822
0.0185611
0.0185401
0.0185191
0.0184982
0.0184772
0.0184563
0.0184355
0.0184146
0.0183938
0.0183729
0.0183521
0.0183313
0.0183104
0.0182896
0.0182687
0.0182479
0.018227
0.0182061
0.0181852
0.0181643
0.0181433
0.0181223
0.0181013
0.0180802
0.0180591
0.018038
0.0180169
0.0179957
0.0179744
0.0179531
0.0179318
0.0179104
0.0178889
0.0178674
0.0178458
0.0178242
0.0178025
0.0177807
0.0177588
0.0177368
0.0177147
0.0176925
0.0176702
0.0176478
0.0176252
0.0176025
0.0175796
0.0175566
0.0175334
0.01751
0.0174863
0.0174625
0.0174384
0.017414
0.0173894
0.0173644
0.0173392
0.0173136
0.0172876
0.0172612
0.0172345
0.0172073
0.0171796
0.0171514
0.0171227
0.0170935
0.0170637
0.0170333
0.0170022
0.0169705
0.0169381
0.0169049
0.016871
0.0168362
0.0168007
0.0167642
0.0167268
0.0166885
0.0166493
0.016609
0.0165676
0.0165251
0.0164816
0.0164368
0.0163909
0.0163438
0.0162953
0.0162456
0.0161945
0.0161421
0.0160883
0.016033
0.0159763
0.015918
0.0158583
0.015797
0.0157341
0.0156696
0.0156035
0.0155357
0.0154663
0.0153952
0.0153223
0.0152478
0.0151714
0.0150934
0.0150136
0.014932
0.0148486
0.0147634
0.0146765
0.0145878
0.0144972
0.0144049
0.0143108
0.014215
0.0141174
0.014018
0.0139169
0.0138141
0.0137096
0.0136035
0.0134956
0.0133862
0.0132752
0.0131626
0.0130484
0.0129328
0.0128157
0.0126972
0.0125773
0.0124561
0.0123336
0.0122099
0.0120849
0.0119588
0.0118317
0.0117035
0.0115743
0.0114442
0.0113132
0.0111814
0.0110489
0.0109157
0.0107818
0.0106475
0.0105126
0.0103773
0.0102416
0.0101056
0.00996945
0.0098331
0.00969665
0.00956019
0.00942376
0.00928744
0.0091513
0.0090154
0.00887982
0.00874461
0.00860984
0.00847559
0.0083419
0.00820885
0.0080765
0.00794491
0.00781414
0.00768425
0.0075553
0.00742734
0.00730044
0.00717463
0.00704998
0.00692653
0.00680434
0.00668345
0.0065639
0.00644573
0.006329
0.00621372
0.00609995
0.00598771
0.00587704
0.00576796
0.0056605
0.00555468
0.00545053
0.00534805
0.00524727
0.0051482
0.00505084
0.00495521
0.0048613
0.00476911
0.00467865
0.0045899
0.00450286
0.0044175
0.00433382
0.0042518
0.00417141
0.00409262
0.0040154
0.00393972
0.00386554
0.00379283
0.00372152
0.00365159
0.00358297
0.00351561
0.00344945
0.00338442
0.00332047
0.00325752
0.0031955
0.00313433
0.00307393
0.00301422
0.00295511
0.00289652
0.00283834
0.00278049
0.00272286
0.00266535
0.00260786
0.00255028
0.0024925
0.0024344
0.00237588
0.00231681
0.00225706
0.00219653
0.00213509
0.00207261
0.00200896
0.00194402
0.00187764
0.00180971
0.00174009
0.00166865
0.00159524
0.00151974
0.00144201
0.00136192
0.00127932
0.00119408
0.00110607
0.00101515
0.000921185
0.000824045
0.000723595
0.000619704
0.000512242
0.000401081
0.000286095
0.00016716
4.41533e-05
-8.30441e-05
-0.000214549
-0.000350475
-0.000490933
-0.000636031
-0.00078587
-0.000940553
-0.00110017
-0.00126483
-0.00143459
-0.00160956
-0.00178981
-0.0019754
-0.00216642
-0.00236291
-0.00256493
-0.00277255
-0.00298579
-0.0032047
-0.00342931
-0.00365964
-0.00389571
-0.00413754
-0.00438512
-0.00463846
-0.00489753
-0.00516234
-0.00543283
-0.005709
-0.00599078
-0.00627813
-0.006571
-0.00686931
-0.007173
-0.00748197
-0.00779615
-0.00811541
-0.00843967
-0.0087688
-0.00910267
-0.00944116
-0.00978411
-0.0101314
-0.0104828
-0.0108382
-0.0111975
-0.0115603
-0.0119266
-0.0122961
-0.0126687
-0.0130441
-0.013422
-0.0138023
-0.0141848
-0.0145691
-0.014955
-0.0153422
-0.0157306
-0.0161198
-0.0165095
-0.0168995
-0.0172895
-0.0176791
-0.0180682
-0.0184563
-0.0188432
-0.0192286
-0.0196121
-0.0199935
-0.0203724
-0.0207485
-0.0211215
-0.0214911
-0.0218569
-0.0222186
-0.022576
-0.0229286
-0.0232762
-0.0236185
-0.023955
-0.0242856
-0.02461
-0.0249277
-0.0252385
-0.0255421
-0.0258382
-0.0261266
-0.0264069
-0.0266788
-0.0269422
-0.0271966
-0.027442
-0.027678
-0.0279044
-0.028121
-0.0283275
-0.0285237
-0.0287095
-0.0288846
-0.0290489
-0.0292022
-0.0293443
-0.0294751
-0.0295944
-0.0297022
-0.0297983
-0.0298826
-0.029955
-0.0300154
-0.0300638
-0.0301002
-0.0301245
-0.0301367
0.136319
0.136123
0.135767
0.135233
0.134529
0.133656
0.13262
0.131422
0.130072
0.128572
0.126932
0.125157
0.123257
0.121238
0.11911
0.116882
0.114564
0.112164
0.109692
0.107158
0.104571
0.10194
0.0992758
0.0965861
0.0938807
0.0911674
0.0884552
0.0857513
0.0830638
0.0803993
0.0777649
0.0751665
0.07261
0.0701006
0.0676431
0.0652418
0.0629005
0.0606226
0.058411
0.0562681
0.0541959
0.0521962
0.0502699
0.048418
0.0466409
0.0449388
0.0433113
0.041758
0.0402782
0.0388708
0.0375345
0.0362679
0.0350694
0.0339373
0.0328694
0.0318639
0.0309185
0.0300311
0.0291994
0.028421
0.0276937
0.0270149
0.0263825
0.0257939
0.025247
0.0247394
0.0242689
0.0238332
0.0234304
0.0230582
0.0227147
0.022398
0.0221063
0.0218378
0.0215909
0.0213638
0.0211553
0.0209637
0.0207878
0.0206263
0.020478
0.0203419
0.0202169
0.020102
0.0199963
0.019899
0.0198094
0.0197268
0.0196504
0.0195797
0.0195141
0.0194532
0.0193964
0.0193434
0.0192938
0.0192472
0.0192033
0.0191618
0.0191225
0.0190851
0.0190495
0.0190154
0.0189827
0.0189512
0.0189208
0.0188914
0.0188629
0.0188351
0.018808
0.0187815
0.0187556
0.0187302
0.0187052
0.0186806
0.0186563
0.0186324
0.0186088
0.0185854
0.0185623
0.0185394
0.0185167
0.0184941
0.0184718
0.0184496
0.0184276
0.0184057
0.0183839
0.0183622
0.0183407
0.0183192
0.0182979
0.0182766
0.0182555
0.0182344
0.0182133
0.0181924
0.0181715
0.0181506
0.0181298
0.0181091
0.0180884
0.0180677
0.018047
0.0180264
0.0180058
0.0179852
0.0179646
0.0179441
0.0179235
0.0179029
0.0178824
0.0178618
0.0178412
0.0178206
0.0178
0.0177794
0.0177587
0.0177381
0.0177173
0.0176966
0.0176758
0.017655
0.0176342
0.0176133
0.0175924
0.0175714
0.0175504
0.0175294
0.0175083
0.0174871
0.0174659
0.0174446
0.0174233
0.0174019
0.0173805
0.017359
0.0173374
0.0173157
0.0172939
0.0172721
0.0172501
0.0172281
0.0172059
0.0171837
0.0171613
0.0171388
0.0171161
0.0170933
0.0170703
0.0170472
0.0170238
0.0170003
0.0169765
0.0169525
0.0169283
0.0169037
0.0168789
0.0168538
0.0168284
0.0168026
0.0167765
0.0167499
0.016723
0.0166956
0.0166678
0.0166394
0.0166105
0.0165811
0.0165511
0.0165205
0.0164893
0.0164574
0.0164248
0.0163914
0.0163573
0.0163224
0.0162867
0.0162501
0.0162125
0.0161741
0.0161346
0.0160942
0.0160527
0.0160101
0.0159664
0.0159216
0.0158756
0.0158283
0.0157798
0.01573
0.0156789
0.0156264
0.0155725
0.0155172
0.0154605
0.0154022
0.0153425
0.0152812
0.0152183
0.0151539
0.0150878
0.0150201
0.0149508
0.0148798
0.014807
0.0147326
0.0146564
0.0145785
0.0144989
0.0144175
0.0143343
0.0142494
0.0141626
0.0140741
0.0139839
0.0138918
0.013798
0.0137025
0.0136052