/*--------------------------------*- C++ -*----------------------------------*\
| =========                 |                                                 |
| \\      /  F ield         | OpenFOAM: The Open Source CFD Toolbox           |
|  \\    /   O peration     | Version:  v2012                                 |
|   \\  /    A nd           | Website:  www.openfoam.com                      |
|    \\/     M anipulation  |                                                 |
\*---------------------------------------------------------------------------*/
FoamFile
{
    version     2.0;
    format      ascii;
    class       volVectorField;
    location    "100";
    object      U;
}
// * * * * * * * * * * * * * * * * * * * * * * * * * * * * * * * * * * * * * //

dimensions      [0 1 -1 0 0 0 0];


internalField   nonuniform List<vector> 
65536
(
(0.141534 -0.143697 0)
(0.426018 -0.142714 0)
(0.71033 -0.142199 0)
(0.992724 -0.141209 0)
(1.27346 -0.140133 0)
(1.55157 -0.138742 0)
(1.82686 -0.137146 0)
(2.09863 -0.135279 0)
(2.36654 -0.13319 0)
(2.63 -0.130855 0)
(2.88864 -0.128304 0)
(3.14196 -0.12553 0)
(3.38958 -0.122556 0)
(3.63107 -0.119383 0)
(3.86608 -0.11603 0)
(4.09424 -0.112503 0)
(4.31522 -0.10882 0)
(4.52873 -0.10499 0)
(4.73447 -0.101028 0)
(4.93221 -0.0969469 0)
(5.12172 -0.0927616 0)
(5.30281 -0.0884839 0)
(5.47529 -0.0841298 0)
(5.63904 -0.0797109 0)
(5.79393 -0.075243 0)
(5.93988 -0.0707374 0)
(6.07683 -0.0662094 0)
(6.20475 -0.0616698 0)
(6.32361 -0.0571333 0)
(6.43345 -0.05261 0)
(6.53429 -0.0481133 0)
(6.6262 -0.0436529 0)
(6.70926 -0.0392409 0)
(6.78358 -0.034886 0)
(6.84927 -0.030599 0)
(6.90649 -0.0263876 0)
(6.95538 -0.0222612 0)
(6.99614 -0.0182264 0)
(7.02894 -0.0142911 0)
(7.05399 -0.010461 0)
(7.0715 -0.00674236 0)
(7.0817 -0.00313971 0)
(7.08483 0.000341905 0)
(7.08113 0.00369923 0)
(7.07085 0.00692851 0)
(7.05426 0.0100276 0)
(7.0316 0.0129939 0)
(7.00315 0.0158264 0)
(6.96917 0.0185237 0)
(6.92994 0.0210856 0)
(6.88573 0.0235118 0)
(6.8368 0.0258029 0)
(6.78343 0.0279596 0)
(6.72587 0.0299833 0)
(6.6644 0.0318754 0)
(6.59928 0.0336381 0)
(6.53076 0.0352733 0)
(6.4591 0.0367838 0)
(6.38454 0.0381722 0)
(6.30731 0.0394416 0)
(6.22767 0.0405953 0)
(6.14582 0.0416365 0)
(6.062 0.0425688 0)
(5.97642 0.043396 0)
(5.88929 0.0441217 0)
(5.8008 0.0447498 0)
(5.71114 0.0452844 0)
(5.6205 0.0457292 0)
(5.52906 0.0460885 0)
(5.43697 0.0463661 0)
(5.34441 0.0465661 0)
(5.25151 0.0466925 0)
(5.15843 0.0467492 0)
(5.0653 0.0467401 0)
(4.97224 0.0466692 0)
(4.87939 0.0465401 0)
(4.78684 0.0463565 0)
(4.6947 0.0461222 0)
(4.60308 0.0458406 0)
(4.51206 0.045515 0)
(4.42173 0.045149 0)
(4.33216 0.0447455 0)
(4.24343 0.0443079 0)
(4.15561 0.0438388 0)
(4.06875 0.0433414 0)
(3.9829 0.0428182 0)
(3.89812 0.0422719 0)
(3.81445 0.0417049 0)
(3.73193 0.0411196 0)
(3.6506 0.0405183 0)
(3.57047 0.0399031 0)
(3.49159 0.0392759 0)
(3.41397 0.0386387 0)
(3.33762 0.0379932 0)
(3.26257 0.0373411 0)
(3.18883 0.036684 0)
(3.1164 0.0360232 0)
(3.04529 0.0353602 0)
(2.97551 0.0346962 0)
(2.90705 0.0340324 0)
(2.83991 0.0333698 0)
(2.77409 0.0327095 0)
(2.70959 0.0320523 0)
(2.6464 0.0313991 0)
(2.58451 0.0307506 0)
(2.5239 0.0301076 0)
(2.46457 0.0294706 0)
(2.40651 0.0288403 0)
(2.3497 0.0282171 0)
(2.29412 0.0276015 0)
(2.23977 0.0269939 0)
(2.18662 0.0263946 0)
(2.13466 0.025804 0)
(2.08386 0.0252222 0)
(2.03422 0.0246497 0)
(1.98572 0.0240864 0)
(1.93833 0.0235327 0)
(1.89203 0.0229886 0)
(1.84681 0.0224542 0)
(1.80265 0.0219296 0)
(1.75953 0.0214148 0)
(1.71742 0.0209099 0)
(1.67632 0.0204148 0)
(1.63619 0.0199296 0)
(1.59702 0.0194542 0)
(1.55879 0.0189886 0)
(1.52148 0.0185327 0)
(1.48507 0.0180864 0)
(1.44954 0.0176497 0)
(1.41487 0.0172225 0)
(1.38105 0.0168046 0)
(1.34805 0.0163959 0)
(1.31586 0.0159964 0)
(1.28445 0.0156059 0)
(1.25382 0.0152242 0)
(1.22394 0.0148513 0)
(1.1948 0.014487 0)
(1.16637 0.0141311 0)
(1.13865 0.0137835 0)
(1.11161 0.0134441 0)
(1.08525 0.0131128 0)
(1.05953 0.0127892 0)
(1.03445 0.0124734 0)
(1.01 0.0121652 0)
(0.986152 0.0118644 0)
(0.962899 0.0115708 0)
(0.940223 0.0112843 0)
(0.918113 0.0110048 0)
(0.896553 0.0107321 0)
(0.87553 0.0104661 0)
(0.855031 0.0102066 0)
(0.835044 0.0099535 0)
(0.815555 0.00970661 0)
(0.796552 0.00946581 0)
(0.778024 0.00923096 0)
(0.759958 0.00900193 0)
(0.742343 0.00877858 0)
(0.725168 0.00856077 0)
(0.708421 0.00834838 0)
(0.692093 0.00814128 0)
(0.676172 0.00793935 0)
(0.660649 0.00774245 0)
(0.645513 0.00755046 0)
(0.630755 0.00736327 0)
(0.616365 0.00718076 0)
(0.602334 0.00700282 0)
(0.588654 0.00682933 0)
(0.575314 0.00666018 0)
(0.562307 0.00649527 0)
(0.549624 0.00633448 0)
(0.537258 0.00617772 0)
(0.5252 0.00602489 0)
(0.513442 0.00587588 0)
(0.501977 0.0057306 0)
(0.490797 0.00558896 0)
(0.479895 0.00545086 0)
(0.469265 0.00531621 0)
(0.4589 0.00518493 0)
(0.448791 0.00505693 0)
(0.438935 0.00493212 0)
(0.429323 0.00481043 0)
(0.41995 0.00469177 0)
(0.410809 0.00457606 0)
(0.401896 0.00446324 0)
(0.393203 0.00435322 0)
(0.384726 0.00424593 0)
(0.37646 0.00414131 0)
(0.368398 0.00403928 0)
(0.360535 0.00393977 0)
(0.352868 0.00384272 0)
(0.34539 0.00374807 0)
(0.338097 0.00365575 0)
(0.330984 0.00356571 0)
(0.324047 0.00347787 0)
(0.317281 0.0033922 0)
(0.310682 0.00330862 0)
(0.304246 0.00322709 0)
(0.297968 0.00314754 0)
(0.291845 0.00306994 0)
(0.285872 0.00299422 0)
(0.280047 0.00292034 0)
(0.274364 0.00284826 0)
(0.268821 0.00277791 0)
(0.263414 0.00270926 0)
(0.25814 0.00264227 0)
(0.252995 0.00257689 0)
(0.247975 0.00251307 0)
(0.243078 0.00245078 0)
(0.238301 0.00238998 0)
(0.23364 0.00233063 0)
(0.229093 0.00227269 0)
(0.224656 0.00221612 0)
(0.220327 0.00216089 0)
(0.216103 0.00210696 0)
(0.211981 0.00205431 0)
(0.207959 0.00200289 0)
(0.204034 0.00195267 0)
(0.200203 0.00190363 0)
(0.196465 0.00185574 0)
(0.192816 0.00180896 0)
(0.189255 0.00176327 0)
(0.185779 0.00171864 0)
(0.182386 0.00167504 0)
(0.179073 0.00163244 0)
(0.17584 0.00159083 0)
(0.172683 0.00155018 0)
(0.1696 0.00151046 0)
(0.16659 0.00147166 0)
(0.163651 0.00143374 0)
(0.160781 0.00139669 0)
(0.157978 0.00136049 0)
(0.15524 0.00132511 0)
(0.152566 0.00129054 0)
(0.149953 0.00125676 0)
(0.147401 0.00122375 0)
(0.144907 0.00119149 0)
(0.142471 0.00115996 0)
(0.14009 0.00112916 0)
(0.137763 0.00109905 0)
(0.135488 0.00106964 0)
(0.133265 0.00104089 0)
(0.131092 0.0010128 0)
(0.128967 0.000985356 0)
(0.12689 0.00095854 0)
(0.124858 0.000932339 0)
(0.122871 0.000906742 0)
(0.120928 0.000881735 0)
(0.119027 0.000857307 0)
(0.117168 0.000833447 0)
(0.115348 0.000810142 0)
(0.113568 0.000787382 0)
(0.111826 0.000765156 0)
(0.110121 0.000743455 0)
(0.108452 0.000722267 0)
(0.106818 0.000701585 0)
(0.105219 0.000681397 0)
(0.103652 0.000661695 0)
(0.102119 0.00064247 0)
(0.100617 0.000623714 0)
(0.0991461 0.000605418 0)
(0.0977053 0.000587574 0)
(0.0962938 0.000570174 0)
(0.0949111 0.000553209 0)
(0.0935564 0.000536674 0)
(0.092229 0.000520559 0)
(0.0909282 0.000504858 0)
(0.0896536 0.000489564 0)
(0.0884043 0.000474669 0)
(0.08718 0.000460167 0)
(0.08598 0.000446051 0)
(0.0848038 0.000432315 0)
(0.083651 0.000418951 0)
(0.0825209 0.000405954 0)
(0.0814132 0.000393316 0)
(0.0803275 0.000381033 0)
(0.0792632 0.000369096 0)
(0.07822 0.000357501 0)
(0.0771975 0.000346242 0)
(0.0761954 0.000335311 0)
(0.0752132 0.000324704 0)
(0.0742507 0.000314414 0)
(0.0733076 0.000304435 0)
(0.0723835 0.000294761 0)
(0.0714782 0.000285387 0)
(0.0705913 0.000276307 0)
(0.0697228 0.000267515 0)
(0.0688722 0.000259005 0)
(0.0680395 0.000250771 0)
(0.0672243 0.000242807 0)
(0.0664266 0.000235108 0)
(0.065646 0.000227669 0)
(0.0648825 0.000220482 0)
(0.0641358 0.000213544 0)
(0.0634059 0.000206847 0)
(0.0626925 0.000200387 0)
(0.0619956 0.000194157 0)
(0.061315 0.000188151 0)
(0.0606507 0.000182366 0)
(0.0600025 0.000176793 0)
(0.0593702 0.000171429 0)
(0.0587539 0.000166267 0)
(0.0581535 0.000161302 0)
(0.0575688 0.000156528 0)
(0.0569998 0.00015194 0)
(0.0564464 0.000147532 0)
(0.0559086 0.000143299 0)
(0.0553863 0.000139235 0)
(0.0548794 0.000135335 0)
(0.0543879 0.000131594 0)
(0.0539118 0.000128005 0)
(0.0534509 0.000124565 0)
(0.0530053 0.000121267 0)
(0.0525749 0.000118107 0)
(0.0521596 0.000115079 0)
(0.0517594 0.000112178 0)
(0.0513743 0.0001094 0)
(0.0510042 0.000106739 0)
(0.050649 0.000104191 0)
(0.0503088 0.00010175 0)
(0.0499834 9.94123e-05 0)
(0.0496728 9.71728e-05 0)
(0.049377 9.5027e-05 0)
(0.0490958 9.29704e-05 0)
(0.0488292 9.09986e-05 0)
(0.0485772 8.91074e-05 0)
(0.0483397 8.72924e-05 0)
(0.0481166 8.55496e-05 0)
(0.0479078 8.38749e-05 0)
(0.0477132 8.22643e-05 0)
(0.0475328 8.07141e-05 0)
(0.0473664 7.92203e-05 0)
(0.0472139 7.77796e-05 0)
(0.0470753 7.63882e-05 0)
(0.0469504 7.50427e-05 0)
(0.046839 7.37399e-05 0)
(0.0467411 7.24766e-05 0)
(0.0466565 7.12495e-05 0)
(0.0465851 7.00557e-05 0)
(0.0465267 6.88924e-05 0)
(0.0464812 6.77567e-05 0)
(0.0464483 6.6646e-05 0)
(0.0464279 6.55577e-05 0)
(0.0464199 6.44894e-05 0)
(0.0464239 6.34388e-05 0)
(0.0464399 6.24036e-05 0)
(0.0464676 6.13818e-05 0)
(0.0465068 6.03713e-05 0)
(0.0465572 5.93703e-05 0)
(0.0466187 5.8377e-05 0)
(0.0466909 5.73897e-05 0)
(0.0467736 5.64071e-05 0)
(0.0468666 5.54275e-05 0)
(0.0469696 5.44497e-05 0)
(0.0470823 5.34725e-05 0)
(0.0472043 5.24949e-05 0)
(0.0473355 5.15157e-05 0)
(0.0474754 5.05343e-05 0)
(0.0476239 4.95497e-05 0)
(0.0477805 4.85615e-05 0)
(0.0479449 4.75689e-05 0)
(0.0481167 4.65717e-05 0)
(0.0482958 4.55694e-05 0)
(0.0484815 4.45619e-05 0)
(0.0486737 4.35491e-05 0)
(0.048872 4.25309e-05 0)
(0.0490758 4.15075e-05 0)
(0.049285 4.0479e-05 0)
(0.0494991 3.94458e-05 0)
(0.0497176 3.84082e-05 0)
(0.0499403 3.73668e-05 0)
(0.0501666 3.63221e-05 0)
(0.0503962 3.52749e-05 0)
(0.0506287 3.42259e-05 0)
(0.0508636 3.3176e-05 0)
(0.0511005 3.21262e-05 0)
(0.0513391 3.10775e-05 0)
(0.0515788 3.00311e-05 0)
(0.0518193 2.89881e-05 0)
(0.0520601 2.79499e-05 0)
(0.0523008 2.69178e-05 0)
(0.0525409 2.58932e-05 0)
(0.0527801 2.48777e-05 0)
(0.0530179 2.38729e-05 0)
(0.0532539 2.28803e-05 0)
(0.0534876 2.19016e-05 0)
(0.0537187 2.09387e-05 0)
(0.0539467 1.99932e-05 0)
(0.0541712 1.9067e-05 0)
(0.0543918 1.8162e-05 0)
(0.054608 1.728e-05 0)
(0.0548196 1.6423e-05 0)
(0.055026 1.5593e-05 0)
(0.055227 1.47918e-05 0)
(0.055422 1.40215e-05 0)
(0.0556109 1.32841e-05 0)
(0.0557931 1.25814e-05 0)
(0.0559683 1.19156e-05 0)
(0.0561363 1.12885e-05 0)
(0.0562965 1.07021e-05 0)
(0.0564488 1.01583e-05 0)
(0.0565928 9.65893e-06 0)
(0.0567282 9.20593e-06 0)
(0.0568547 8.80106e-06 0)
(0.056972 8.44609e-06 0)
(0.0570798 8.14272e-06 0)
(0.0571779 7.89259e-06 0)
(0.0572661 7.69729e-06 0)
(0.057344 7.55832e-06 0)
(0.0574115 7.47712e-06 0)
(0.0574683 7.45506e-06 0)
(0.0575143 7.4934e-06 0)
(0.0575493 7.59334e-06 0)
(0.0575731 7.75597e-06 0)
(0.0575855 7.98229e-06 0)
(0.0575864 8.2732e-06 0)
(0.0575756 8.6295e-06 0)
(0.0575531 9.05191e-06 0)
(0.0575187 9.54099e-06 0)
(0.0574722 1.00972e-05 0)
(0.0574137 1.07211e-05 0)
(0.057343 1.14127e-05 0)
(0.0572601 1.21722e-05 0)
(0.0571649 1.29998e-05 0)
(0.0570574 1.38953e-05 0)
(0.0569374 1.48586e-05 0)
(0.0568051 1.58894e-05 0)
(0.0566603 1.69872e-05 0)
(0.0565031 1.81515e-05 0)
(0.0563334 1.93819e-05 0)
(0.0561512 2.06774e-05 0)
(0.0559566 2.20373e-05 0)
(0.0557495 2.34608e-05 0)
(0.0555299 2.49467e-05 0)
(0.0552979 2.64939e-05 0)
(0.0550536 2.81013e-05 0)
(0.0547968 2.97676e-05 0)
(0.0545276 3.14914e-05 0)
(0.0542462 3.32711e-05 0)
(0.0539523 3.51054e-05 0)
(0.0536462 3.69926e-05 0)
(0.0533279 3.89311e-05 0)
(0.0529972 4.0919e-05 0)
(0.0526544 4.29545e-05 0)
(0.0522993 4.50359e-05 0)
(0.0519321 4.71613e-05 0)
(0.0515526 4.93285e-05 0)
(0.051161 5.15357e-05 0)
(0.0507573 5.37807e-05 0)
(0.0503414 5.60616e-05 0)
(0.0499133 5.8376e-05 0)
(0.049473 6.07219e-05 0)
(0.0490206 6.30971e-05 0)
(0.048556 6.54993e-05 0)
(0.0480793 6.79263e-05 0)
(0.0475903 7.03758e-05 0)
(0.047089 7.28454e-05 0)
(0.0465755 7.53329e-05 0)
(0.0460497 7.7836e-05 0)
(0.0455115 8.03522e-05 0)
(0.044961 8.28792e-05 0)
(0.0443981 8.54146e-05 0)
(0.0438228 8.79561e-05 0)
(0.043235 9.05012e-05 0)
(0.0426347 9.30475e-05 0)
(0.0420218 9.55927e-05 0)
(0.0413964 9.81342e-05 0)
(0.0407584 0.00010067 0)
(0.0401077 0.000103197 0)
(0.0394444 0.000105713 0)
(0.0387684 0.000108216 0)
(0.0380797 0.000110703 0)
(0.0373784 0.000113172 0)
(0.0366643 0.00011562 0)
(0.0359376 0.000118046 0)
(0.0351982 0.000120446 0)
(0.0344462 0.000122819 0)
(0.0336816 0.000125161 0)
(0.0329046 0.000127471 0)
(0.032115 0.000129746 0)
(0.0313131 0.000131984 0)
(0.0304989 0.000134183 0)
(0.0296726 0.000136339 0)
(0.0288343 0.000138452 0)
(0.0279841 0.000140519 0)
(0.0271221 0.000142537 0)
(0.0262487 0.000144505 0)
(0.0253639 0.00014642 0)
(0.024468 0.00014828 0)
(0.0235612 0.000150084 0)
(0.0226439 0.000151828 0)
(0.0217161 0.000153512 0)
(0.0207784 0.000155133 0)
(0.0198308 0.00015669 0)
(0.018874 0.00015818 0)
(0.017908 0.000159602 0)
(0.0169335 0.000160954 0)
(0.0159505 0.000162236 0)
(0.0149599 0.000163443 0)
(0.0139615 0.000164578 0)
(0.0129564 0.000165635 0)
(0.0119445 0.000166617 0)
(0.0109267 0.000167518 0)
(0.00990311 0.000168342 0)
(0.0088745 0.000169083 0)
(0.0078413 0.000169744 0)
(0.0068039 0.000170324 0)
(0.00576321 0.000170812 0)
(0.00471908 0.000171248 0)
(0.00367315 0.000171539 0)
(0.00262458 0.000171929 0)
(0.00157556 0.000171965 0)
(0.00052554 0.00017303 0)
(0.142298 -0.43025 0)
(0.427082 -0.428777 0)
(0.711115 -0.427182 0)
(0.993736 -0.424567 0)
(1.27458 -0.421316 0)
(1.5529 -0.417222 0)
(1.82838 -0.412415 0)
(2.10035 -0.406826 0)
(2.36843 -0.400534 0)
(2.63207 -0.393516 0)
(2.89086 -0.385835 0)
(3.14432 -0.377489 0)
(3.39206 -0.368535 0)
(3.63366 -0.358985 0)
(3.86875 -0.348891 0)
(4.09698 -0.338276 0)
(4.31801 -0.327189 0)
(4.53154 -0.31566 0)
(4.73729 -0.303736 0)
(4.93501 -0.291453 0)
(5.12449 -0.278856 0)
(5.30551 -0.265982 0)
(5.47791 -0.252878 0)
(5.64156 -0.23958 0)
(5.79633 -0.226135 0)
(5.94215 -0.212577 0)
(6.07894 -0.198952 0)
(6.20668 -0.185294 0)
(6.32535 -0.171644 0)
(6.43498 -0.158036 0)
(6.5356 -0.144508 0)
(6.62727 -0.13109 0)
(6.71008 -0.117818 0)
(6.78414 -0.104719 0)
(6.84957 -0.0918251 0)
(6.90651 -0.0791593 0)
(6.95512 -0.0667495 0)
(6.99559 -0.0546163 0)
(7.02809 -0.042783 0)
(7.05284 -0.0312666 0)
(7.07005 -0.0200863 0)
(7.07995 -0.00925546 0)
(7.08278 0.00121089 0)
(7.07878 0.0113027 0)
(7.06821 0.021009 0)
(7.05132 0.0303232 0)
(7.02837 0.0392378 0)
(6.99964 0.0477493 0)
(6.96539 0.055854 0)
(6.92589 0.063551 0)
(6.88142 0.0708397 0)
(6.83224 0.0777219 0)
(6.77862 0.0841997 0)
(6.72084 0.0902774 0)
(6.65915 0.0959592 0)
(6.59381 0.101251 0)
(6.52509 0.106161 0)
(6.45324 0.110695 0)
(6.3785 0.114862 0)
(6.30111 0.118671 0)
(6.22131 0.122132 0)
(6.13933 0.125255 0)
(6.05538 0.128051 0)
(5.96969 0.130531 0)
(5.88245 0.132706 0)
(5.79386 0.134587 0)
(5.70413 0.136188 0)
(5.61342 0.137519 0)
(5.52191 0.138593 0)
(5.42978 0.139421 0)
(5.33718 0.140017 0)
(5.24425 0.140391 0)
(5.15115 0.140556 0)
(5.05801 0.140524 0)
(4.96496 0.140306 0)
(4.87211 0.139913 0)
(4.77958 0.139357 0)
(4.68747 0.138649 0)
(4.59588 0.137798 0)
(4.5049 0.136816 0)
(4.41461 0.135712 0)
(4.3251 0.134496 0)
(4.23643 0.133177 0)
(4.14866 0.131765 0)
(4.06187 0.130267 0)
(3.9761 0.128692 0)
(3.8914 0.127047 0)
(3.80781 0.125341 0)
(3.72537 0.12358 0)
(3.64412 0.12177 0)
(3.56409 0.11992 0)
(3.48529 0.118033 0)
(3.40777 0.116116 0)
(3.33152 0.114175 0)
(3.25656 0.112214 0)
(3.18292 0.110238 0)
(3.11059 0.108251 0)
(3.03958 0.106257 0)
(2.9699 0.104261 0)
(2.90154 0.102265 0)
(2.83451 0.100273 0)
(2.7688 0.0982879 0)
(2.7044 0.0963123 0)
(2.64131 0.0943488 0)
(2.57951 0.0923996 0)
(2.51901 0.0904668 0)
(2.45978 0.0885522 0)
(2.40182 0.0866577 0)
(2.34511 0.0847846 0)
(2.28963 0.0829344 0)
(2.23537 0.0811082 0)
(2.18232 0.0793072 0)
(2.13045 0.0775322 0)
(2.07975 0.075784 0)
(2.0302 0.0740633 0)
(1.98179 0.0723707 0)
(1.93449 0.0707067 0)
(1.88828 0.0690716 0)
(1.84315 0.0674657 0)
(1.79907 0.0658893 0)
(1.75603 0.0643424 0)
(1.71401 0.0628252 0)
(1.67298 0.0613376 0)
(1.63293 0.0598796 0)
(1.59384 0.0584512 0)
(1.55568 0.0570522 0)
(1.51845 0.0556823 0)
(1.48211 0.0543414 0)
(1.44665 0.0530292 0)
(1.41205 0.0517455 0)
(1.3783 0.0504899 0)
(1.34537 0.049262 0)
(1.31324 0.0480616 0)
(1.2819 0.0468882 0)
(1.25133 0.0457415 0)
(1.22152 0.044621 0)
(1.19243 0.0435264 0)
(1.16407 0.0424572 0)
(1.1364 0.0414129 0)
(1.10942 0.0403932 0)
(1.0831 0.0393975 0)
(1.05744 0.0384255 0)
(1.03242 0.0374767 0)
(1.00801 0.0365506 0)
(0.984217 0.0356467 0)
(0.961012 0.0347647 0)
(0.938384 0.033904 0)
(0.916319 0.0330643 0)
(0.894804 0.032245 0)
(0.873825 0.0314458 0)
(0.85337 0.0306661 0)
(0.833424 0.0299057 0)
(0.813976 0.0291639 0)
(0.795013 0.0284404 0)
(0.776523 0.0277348 0)
(0.758495 0.0270467 0)
(0.740917 0.0263757 0)
(0.723778 0.0257213 0)
(0.707066 0.0250832 0)
(0.690772 0.024461 0)
(0.674885 0.0238543 0)
(0.659394 0.0232627 0)
(0.64429 0.0226859 0)
(0.629562 0.0221235 0)
(0.615203 0.0215752 0)
(0.601201 0.0210406 0)
(0.587549 0.0205193 0)
(0.574237 0.0200111 0)
(0.561258 0.0195157 0)
(0.548601 0.0190326 0)
(0.536261 0.0185616 0)
(0.524228 0.0181024 0)
(0.512494 0.0176548 0)
(0.501053 0.0172183 0)
(0.489896 0.0167927 0)
(0.479018 0.0163778 0)
(0.46841 0.0159733 0)
(0.458065 0.0155789 0)
(0.447978 0.0151943 0)
(0.438142 0.0148193 0)
(0.42855 0.0144537 0)
(0.419197 0.0140972 0)
(0.410075 0.0137496 0)
(0.40118 0.0134106 0)
(0.392506 0.0130801 0)
(0.384046 0.0127577 0)
(0.375796 0.0124434 0)
(0.367751 0.0121369 0)
(0.359905 0.0118379 0)
(0.352253 0.0115463 0)
(0.344791 0.011262 0)
(0.337513 0.0109846 0)
(0.330414 0.0107141 0)
(0.323491 0.0104502 0)
(0.316739 0.0101928 0)
(0.310154 0.0099417 0)
(0.303731 0.00969674 0)
(0.297466 0.00945777 0)
(0.291355 0.00922461 0)
(0.285395 0.00899713 0)
(0.279582 0.00877518 0)
(0.273911 0.0085586 0)
(0.268379 0.00834726 0)
(0.262983 0.00814102 0)
(0.257719 0.00793975 0)
(0.252584 0.00774332 0)
(0.247575 0.0075516 0)
(0.242688 0.00736446 0)
(0.23792 0.00718179 0)
(0.233269 0.00700348 0)
(0.228731 0.0068294 0)
(0.224303 0.00665945 0)
(0.219982 0.00649353 0)
(0.215767 0.00633151 0)
(0.211653 0.00617332 0)
(0.207639 0.00601884 0)
(0.203722 0.00586798 0)
(0.199899 0.00572066 0)
(0.196168 0.00557677 0)
(0.192527 0.00543623 0)
(0.188973 0.00529896 0)
(0.185504 0.00516487 0)
(0.182117 0.00503389 0)
(0.178812 0.00490593 0)
(0.175584 0.00478092 0)
(0.172434 0.00465879 0)
(0.169357 0.00453947 0)
(0.166353 0.00442288 0)
(0.16342 0.00430896 0)
(0.160555 0.00419766 0)
(0.157758 0.00408889 0)
(0.155025 0.00398261 0)
(0.152356 0.00387875 0)
(0.149749 0.00377726 0)
(0.147202 0.00367809 0)
(0.144713 0.00358117 0)
(0.142281 0.00348646 0)
(0.139905 0.00339391 0)
(0.137582 0.00330347 0)
(0.135312 0.00321509 0)
(0.133093 0.00312872 0)
(0.130924 0.00304433 0)
(0.128804 0.00296187 0)
(0.12673 0.00288131 0)
(0.124703 0.00280259 0)
(0.12272 0.00272568 0)
(0.12078 0.00265055 0)
(0.118883 0.00257715 0)
(0.117027 0.00250546 0)
(0.115211 0.00243544 0)
(0.113434 0.00236705 0)
(0.111695 0.00230027 0)
(0.109993 0.00223507 0)
(0.108328 0.0021714 0)
(0.106697 0.00210926 0)
(0.1051 0.00204859 0)
(0.103537 0.00198939 0)
(0.102007 0.00193162 0)
(0.100508 0.00187526 0)
(0.0990394 0.00182028 0)
(0.0976013 0.00176666 0)
(0.0961925 0.00171436 0)
(0.0948124 0.00166338 0)
(0.0934601 0.00161369 0)
(0.0921352 0.00156526 0)
(0.0908369 0.00151807 0)
(0.0895645 0.0014721 0)
(0.0883176 0.00142733 0)
(0.0870955 0.00138375 0)
(0.0858977 0.00134132 0)
(0.0847237 0.00130003 0)
(0.0835729 0.00125986 0)
(0.0824449 0.00122078 0)
(0.0813393 0.00118279 0)
(0.0802555 0.00114587 0)
(0.0791931 0.00110998 0)
(0.0781518 0.00107512 0)
(0.0771311 0.00104127 0)
(0.0761308 0.0010084 0)
(0.0751504 0.000976507 0)
(0.0741896 0.000945565 0)
(0.0732481 0.000915557 0)
(0.0723257 0.000886466 0)
(0.071422 0.000858274 0)
(0.0705367 0.000830965 0)
(0.0696697 0.000804519 0)
(0.0688206 0.000778921 0)
(0.0679893 0.000754153 0)
(0.0671756 0.000730197 0)
(0.0663792 0.000707036 0)
(0.0656 0.000684653 0)
(0.0648377 0.000663031 0)
(0.0640924 0.000642153 0)
(0.0633637 0.000622001 0)
(0.0626516 0.000602559 0)
(0.0619558 0.000583809 0)
(0.0612764 0.000565735 0)
(0.0606132 0.000548319 0)
(0.0599661 0.000531545 0)
(0.0593349 0.000515396 0)
(0.0587197 0.000499855 0)
(0.0581202 0.000484905 0)
(0.0575365 0.000470529 0)
(0.0569685 0.000456712 0)
(0.0564161 0.000443436 0)
(0.0558792 0.000430686 0)
(0.0553577 0.000418444 0)
(0.0548517 0.000406695 0)
(0.0543611 0.000395422 0)
(0.0538857 0.00038461 0)
(0.0534256 0.000374242 0)
(0.0529808 0.000364304 0)
(0.0525511 0.000354779 0)
(0.0521365 0.000345652 0)
(0.0517371 0.000336908 0)
(0.0513526 0.000328532 0)
(0.0509831 0.000320509 0)
(0.0506286 0.000312824 0)
(0.050289 0.000305464 0)
(0.0499642 0.000298413 0)
(0.0496542 0.000291658 0)
(0.0493589 0.000285186 0)
(0.0490782 0.000278982 0)
(0.0488122 0.000273034 0)
(0.0485607 0.000267329 0)
(0.0483236 0.000261853 0)
(0.048101 0.000256595 0)
(0.0478926 0.000251543 0)
(0.0476985 0.000246684 0)
(0.0475184 0.000242007 0)
(0.0473524 0.000237501 0)
(0.0472004 0.000233155 0)
(0.0470621 0.000228958 0)
(0.0469375 0.0002249 0)
(0.0468265 0.000220972 0)
(0.0467289 0.000217163 0)
(0.0466447 0.000213464 0)
(0.0465736 0.000209866 0)
(0.0465154 0.00020636 0)
(0.0464702 0.000202939 0)
(0.0464376 0.000199593 0)
(0.0464175 0.000196317 0)
(0.0464096 0.000193101 0)
(0.046414 0.00018994 0)
(0.0464302 0.000186826 0)
(0.0464581 0.000183753 0)
(0.0464975 0.000180716 0)
(0.0465481 0.000177708 0)
(0.0466098 0.000174725 0)
(0.0466822 0.00017176 0)
(0.0467651 0.000168811 0)
(0.0468582 0.000165873 0)
(0.0469614 0.00016294 0)
(0.0470742 0.000160011 0)
(0.0471964 0.000157082 0)
(0.0473277 0.000154149 0)
(0.0474678 0.000151211 0)
(0.0476164 0.000148264 0)
(0.0477731 0.000145307 0)
(0.0479376 0.000142339 0)
(0.0481096 0.000139358 0)
(0.0482888 0.000136363 0)
(0.0484747 0.000133353 0)
(0.048667 0.000130328 0)
(0.0488653 0.000127288 0)
(0.0490693 0.000124233 0)
(0.0492786 0.000121164 0)
(0.0494928 0.000118082 0)
(0.0497114 0.000114988 0)
(0.0499342 0.000111884 0)
(0.0501606 0.00010877 0)
(0.0503903 0.00010565 0)
(0.0506229 0.000102525 0)
(0.0508579 9.93981e-05 0)
(0.051095 9.62724e-05 0)
(0.0513336 9.31507e-05 0)
(0.0515735 9.00366e-05 0)
(0.0518141 8.69335e-05 0)
(0.052055 8.38454e-05 0)
(0.0522958 8.07763e-05 0)
(0.0525361 7.77304e-05 0)
(0.0527754 7.47123e-05 0)
(0.0530133 7.17266e-05 0)
(0.0532494 6.87782e-05 0)
(0.0534832 6.58721e-05 0)
(0.0537144 6.30135e-05 0)
(0.0539425 6.02077e-05 0)
(0.0541672 5.74602e-05 0)
(0.0543879 5.47764e-05 0)
(0.0546043 5.21621e-05 0)
(0.054816 4.9623e-05 0)
(0.0550226 4.71648e-05 0)
(0.0552237 4.47935e-05 0)
(0.0554189 4.25149e-05 0)
(0.0556079 4.03349e-05 0)
(0.0557903 3.82594e-05 0)
(0.0559657 3.62943e-05 0)
(0.0561338 3.44454e-05 0)
(0.0562942 3.27185e-05 0)
(0.0564467 3.11193e-05 0)
(0.0565908 2.96534e-05 0)
(0.0567264 2.83263e-05 0)
(0.0568531 2.71434e-05 0)
(0.0569706 2.611e-05 0)
(0.0570786 2.52311e-05 0)
(0.0571769 2.45116e-05 0)
(0.0572652 2.39563e-05 0)
(0.0573433 2.35696e-05 0)
(0.057411 2.33559e-05 0)
(0.0574681 2.33191e-05 0)
(0.0575143 2.34631e-05 0)
(0.0575495 2.37915e-05 0)
(0.0575735 2.43074e-05 0)
(0.0575861 2.50138e-05 0)
(0.0575872 2.59135e-05 0)
(0.0575767 2.70089e-05 0)
(0.0575543 2.8302e-05 0)
(0.0575201 2.97945e-05 0)
(0.0574739 3.14879e-05 0)
(0.0574156 3.33834e-05 0)
(0.0573451 3.54817e-05 0)
(0.0572624 3.77832e-05 0)
(0.0571674 4.02881e-05 0)
(0.0570601 4.29962e-05 0)
(0.0569404 4.59069e-05 0)
(0.0568082 4.90193e-05 0)
(0.0566637 5.23323e-05 0)
(0.0565066 5.58443e-05 0)
(0.0563371 5.95535e-05 0)
(0.0561552 6.34577e-05 0)
(0.0559607 6.75544e-05 0)
(0.0557538 7.1841e-05 0)
(0.0555345 7.63143e-05 0)
(0.0553027 8.09711e-05 0)
(0.0550585 8.58077e-05 0)
(0.0548019 9.08203e-05 0)
(0.0545329 9.60048e-05 0)
(0.0542516 0.000101357 0)
(0.053958 0.000106872 0)
(0.053652 0.000112545 0)
(0.0533338 0.000118371 0)
(0.0530033 0.000124345 0)
(0.0526606 0.000130462 0)
(0.0523057 0.000136715 0)
(0.0519386 0.0001431 0)
(0.0515593 0.000149611 0)
(0.0511678 0.00015624 0)
(0.0507642 0.000162983 0)
(0.0503483 0.000169833 0)
(0.0499204 0.000176783 0)
(0.0494802 0.000183827 0)
(0.0490279 0.000190959 0)
(0.0485634 0.000198171 0)
(0.0480867 0.000205458 0)
(0.0475978 0.000212812 0)
(0.0470966 0.000220225 0)
(0.0465831 0.000227693 0)
(0.0460573 0.000235206 0)
(0.0455192 0.000242759 0)
(0.0449688 0.000250344 0)
(0.0444059 0.000257955 0)
(0.0438306 0.000265583 0)
(0.0432428 0.000273221 0)
(0.0426425 0.000280864 0)
(0.0420296 0.000288502 0)
(0.0414042 0.00029613 0)
(0.0407661 0.000303739 0)
(0.0401155 0.000311323 0)
(0.0394521 0.000318874 0)
(0.0387761 0.000326385 0)
(0.0380873 0.000333849 0)
(0.0373859 0.000341259 0)
(0.0366718 0.000348607 0)
(0.035945 0.000355885 0)
(0.0352056 0.000363088 0)
(0.0344535 0.000370207 0)
(0.0336888 0.000377236 0)
(0.0329116 0.000384168 0)
(0.032122 0.000390995 0)
(0.0313199 0.00039771 0)
(0.0305056 0.000404307 0)
(0.0296792 0.000410779 0)
(0.0288407 0.000417119 0)
(0.0279904 0.00042332 0)
(0.0271282 0.000429376 0)
(0.0262547 0.00043528 0)
(0.0253697 0.000441026 0)
(0.0244736 0.000446607 0)
(0.0235667 0.000452019 0)
(0.0226491 0.000457253 0)
(0.0217212 0.000462306 0)
(0.0207833 0.000467169 0)
(0.0198355 0.000471841 0)
(0.0188785 0.000476312 0)
(0.0179123 0.000480582 0)
(0.0169376 0.000484639 0)
(0.0159544 0.000488487 0)
(0.0149635 0.000492111 0)
(0.0139649 0.00049552 0)
(0.0129595 0.000498693 0)
(0.0119474 0.000501645 0)
(0.0109293 0.000504351 0)
(0.00990552 0.000506828 0)
(0.00887666 0.000509052 0)
(0.00784321 0.000511032 0)
(0.00680555 0.000512757 0)
(0.00576463 0.000514193 0)
(0.00472021 0.000515407 0)
(0.00367415 0.000516152 0)
(0.00262522 0.000516875 0)
(0.00157677 0.000516478 0)
(0.000526637 0.000517531 0)
(0.142728 -0.718118 0)
(0.42831 -0.716552 0)
(0.713139 -0.713849 0)
(0.996526 -0.709624 0)
(1.27813 -0.704196 0)
(1.5572 -0.697366 0)
(1.8334 -0.689324 0)
(2.10607 -0.679969 0)
(2.37483 -0.669439 0)
(2.63911 -0.657689 0)
(2.89851 -0.644833 0)
(3.15255 -0.630862 0)
(3.40082 -0.615875 0)
(3.64291 -0.59989 0)
(3.87845 -0.582995 0)
(4.10708 -0.565229 0)
(4.32846 -0.546673 0)
(4.5423 -0.527379 0)
(4.74831 -0.507425 0)
(4.94625 -0.48687 0)
(5.13588 -0.465791 0)
(5.31702 -0.44425 0)
(5.48948 -0.422325 0)
(5.65315 -0.400077 0)
(5.80788 -0.377583 0)
(5.95362 -0.354903 0)
(6.09028 -0.332111 0)
(6.21785 -0.309265 0)
(6.33632 -0.286435 0)
(6.44569 -0.263676 0)
(6.54602 -0.241053 0)
(6.63737 -0.218616 0)
(6.71982 -0.196424 0)
(6.79349 -0.174524 0)
(6.8585 -0.152967 0)
(6.91499 -0.131793 0)
(6.96314 -0.11105 0)
(7.00311 -0.0907711 0)
(7.0351 -0.0709952 0)
(7.05933 -0.0517506 0)
(7.07601 -0.0330696 0)
(7.08536 -0.0149743 0)
(7.08764 0.00251004 0)
(7.08308 0.019367 0)
(7.07194 0.0355781 0)
(7.05448 0.0511323 0)
(7.03097 0.0660175 0)
(7.00168 0.0802279 0)
(6.96687 0.093757 0)
(6.92683 0.106604 0)
(6.88182 0.118767 0)
(6.83211 0.130251 0)
(6.77797 0.141058 0)
(6.71969 0.151195 0)
(6.65751 0.16067 0)
(6.5917 0.169494 0)
(6.52252 0.177678 0)
(6.45023 0.185234 0)
(6.37507 0.192176 0)
(6.29728 0.198521 0)
(6.21709 0.204284 0)
(6.13475 0.209482 0)
(6.05045 0.214134 0)
(5.96443 0.218257 0)
(5.87689 0.221872 0)
(5.78802 0.224997 0)
(5.69801 0.227652 0)
(5.60706 0.229857 0)
(5.51533 0.231634 0)
(5.42299 0.233 0)
(5.33019 0.233979 0)
(5.2371 0.234588 0)
(5.14385 0.234848 0)
(5.05057 0.234779 0)
(4.9574 0.2344 0)
(4.86444 0.23373 0)
(4.77182 0.232788 0)
(4.67964 0.231591 0)
(4.58799 0.230158 0)
(4.49697 0.228506 0)
(4.40666 0.226652 0)
(4.31712 0.22461 0)
(4.22845 0.222398 0)
(4.14069 0.220029 0)
(4.05391 0.217519 0)
(3.96817 0.21488 0)
(3.8835 0.212126 0)
(3.79995 0.209269 0)
(3.71757 0.206321 0)
(3.63638 0.203294 0)
(3.55641 0.200197 0)
(3.47769 0.197041 0)
(3.40024 0.193836 0)
(3.32407 0.190589 0)
(3.24921 0.187311 0)
(3.17566 0.184007 0)
(3.10342 0.180686 0)
(3.03252 0.177354 0)
(2.96294 0.174018 0)
(2.89468 0.170683 0)
(2.82776 0.167354 0)
(2.76215 0.164038 0)
(2.69786 0.160737 0)
(2.63489 0.157457 0)
(2.57321 0.154202 0)
(2.51282 0.150973 0)
(2.4537 0.147776 0)
(2.39585 0.144612 0)
(2.33926 0.141484 0)
(2.28389 0.138395 0)
(2.22975 0.135346 0)
(2.17681 0.132338 0)
(2.12505 0.129375 0)
(2.07447 0.126456 0)
(2.02503 0.123584 0)
(1.97673 0.120758 0)
(1.92953 0.11798 0)
(1.88344 0.115251 0)
(1.83841 0.112571 0)
(1.79444 0.109939 0)
(1.7515 0.107357 0)
(1.70958 0.104825 0)
(1.66866 0.102342 0)
(1.6287 0.099909 0)
(1.58971 0.0975251 0)
(1.55165 0.0951902 0)
(1.51451 0.0929042 0)
(1.47826 0.0906665 0)
(1.4429 0.0884767 0)
(1.40839 0.0863345 0)
(1.37472 0.0842392 0)
(1.34188 0.0821903 0)
(1.30983 0.0801872 0)
(1.27858 0.0782292 0)
(1.24809 0.0763158 0)
(1.21835 0.0744462 0)
(1.18934 0.0726197 0)
(1.16105 0.0708356 0)
(1.13346 0.0690932 0)
(1.10655 0.0673918 0)
(1.08031 0.0657305 0)
(1.05471 0.0641087 0)
(1.02976 0.0625256 0)
(1.00542 0.0609804 0)
(0.981687 0.0594723 0)
(0.958544 0.0580007 0)
(0.935978 0.0565648 0)
(0.913973 0.0551637 0)
(0.892517 0.0537968 0)
(0.871595 0.0524633 0)
(0.851195 0.0511626 0)
(0.831304 0.0498938 0)
(0.811909 0.0486562 0)
(0.792998 0.0474492 0)
(0.774559 0.046272 0)
(0.75658 0.045124 0)
(0.73905 0.0440044 0)
(0.721958 0.0429127 0)
(0.705292 0.0418481 0)
(0.689043 0.04081 0)
(0.673199 0.0397978 0)
(0.65775 0.0388108 0)
(0.642688 0.0378485 0)
(0.628001 0.0369103 0)
(0.61368 0.0359955 0)
(0.599717 0.0351035 0)
(0.586103 0.0342339 0)
(0.572827 0.0333861 0)
(0.559883 0.0325595 0)
(0.547262 0.0317535 0)
(0.534955 0.0309678 0)
(0.522954 0.0302017 0)
(0.511253 0.0294548 0)
(0.499843 0.0287266 0)
(0.488717 0.0280167 0)
(0.477868 0.0273245 0)
(0.467289 0.0266496 0)
(0.456973 0.0259915 0)
(0.446913 0.0253499 0)
(0.437104 0.0247244 0)
(0.427538 0.0241144 0)
(0.41821 0.0235196 0)
(0.409113 0.0229397 0)
(0.400242 0.0223741 0)
(0.391591 0.0218227 0)
(0.383155 0.0212849 0)
(0.374927 0.0207605 0)
(0.366904 0.020249 0)
(0.359079 0.0197503 0)
(0.351448 0.0192638 0)
(0.344005 0.0187894 0)
(0.336747 0.0183266 0)
(0.329668 0.0178753 0)
(0.322763 0.017435 0)
(0.31603 0.0170055 0)
(0.309462 0.0165866 0)
(0.303056 0.0161779 0)
(0.296808 0.0157792 0)
(0.290714 0.0153902 0)
(0.284769 0.0150107 0)
(0.278971 0.0146403 0)