/*--------------------------------*- C++ -*----------------------------------*\
| =========                 |                                                 |
| \\      /  F ield         | OpenFOAM: The Open Source CFD Toolbox           |
|  \\    /   O peration     | Version:  v2012                                 |
|   \\  /    A nd           | Website:  www.openfoam.com                      |
|    \\/     M anipulation  |                                                 |
\*---------------------------------------------------------------------------*/
FoamFile
{
    version     2.0;
    format      ascii;
    class       volScalarField;
    location    "150";
    object      aE;
}
// * * * * * * * * * * * * * * * * * * * * * * * * * * * * * * * * * * * * * //

dimensions      [0 0 0 0 0 0 0];


internalField   nonuniform List<scalar> 
65536
(
4.50455
4.42573
4.45175
4.51065
4.46192
4.35801
4.54078
4.55777
4.52555
4.55439
4.57934
4.591
4.5699
4.67667
4.30546
4.62766
4.64876
4.64709
4.6879
4.6278
4.72143
4.60119
4.58799
4.68471
4.61563
4.72199
4.59249
4.77449
4.78082
4.76844
4.59084
4.78454
4.78804
4.91393
4.63213
4.83169
4.88099
4.93625
4.87998
4.92646
4.92368
4.82129
4.94296
4.78601
4.83732
4.88718
4.77034
4.87558
4.83781
4.92352
4.87003
4.88624
4.89267
4.98176
4.88393
4.68321
4.90121
4.83405
4.89542
4.86984
4.96798
4.9906
4.91352
4.6913
4.88378
4.92763
4.80586
4.87261
5.01008
4.95473
4.88116
4.8781
4.93967
4.97355
4.92139
4.96356
4.91126
4.92792
4.87644
4.78466
4.80355
4.96458
4.86331
4.82023
4.86651
4.95017
4.85913
4.94957
4.97084
4.83908
4.78999
4.87193
4.91202
4.93017
4.91776
4.9133
4.80162
4.88948
4.97253
4.8888
4.90902
5.00693
4.90696
4.83328
4.87495
4.98901
4.92645
4.85185
4.86424
4.90372
4.97873
4.87701
4.93337
4.88153
4.89094
4.8983
4.78716
4.90933
4.8104
4.96788
4.85288
4.9202
4.88525
4.96322
4.92492
4.88171
4.8854
4.8846
4.91669
4.93547
4.85462
4.90302
4.85217
4.89893
4.90565
4.75518
4.95475
4.90432
4.92378
4.86556
4.90088
4.91607
4.87535
4.88388
5.01144
4.99972
4.83536
4.91195
4.92516
4.86634
4.76632
4.97369
4.77864
4.90219
4.91008
4.83488
4.89439
4.82117
4.92814
4.86227
4.90161
4.96011
4.91357
4.90738
4.94548
4.80966
4.86672
4.8608
4.90837
4.90339
4.91341
4.91518
4.91339
4.98815
4.99105
4.92753
4.72901
4.92008
4.77054
4.95538
5.01072
4.9474
4.92196
4.90618
4.80619
4.85604
4.92618
4.9657
4.9472
4.68288
4.88803
4.94941
4.91487
4.86973
4.72498
4.87305
4.93518
4.96938
4.83189
4.98511
4.8343
4.81707
4.91766
4.98919
4.85397
4.85174
4.89508
4.86939
4.89008
4.91901
4.90781
4.95812
4.90642
4.91664
4.72964
4.85399
5.02666
4.8972
4.93668
4.83423
5.0035
4.92215
4.87986
4.97405
4.92081
4.88493
4.96353
4.98216
4.93181
4.94699
4.95147
4.90419
4.90496
4.83987
4.85196
4.92504
4.92634
4.87181
4.76839
4.85642
4.75321
4.91593
4.89104
5.01181
4.82749
4.91519
4.89519
4.98842
4.8014
4.94449
4.9548
4.89048
4.88359
4.98138
4.90291
4.89129
4.95021
4.723
4.86751
4.90689
4.76423
4.8698
4.92054
4.90208
4.92094
4.96167
4.90733
4.95978
4.95393
4.95045
4.94585
4.89687
4.93365
4.92583
4.89864
4.93314
4.96482
4.93452
4.88478
4.83643
4.96527
4.87028
4.90474
4.93027
4.85296
4.86384
4.82314
4.79029
4.84159
4.9477
4.86379
4.87118
4.92074
4.92004
4.95082
4.96307
4.92182
4.76397
4.93352
4.91273
4.9336
4.92767
4.96271
5.02623
4.88361
4.85323
4.91877
4.87154
4.88538
4.95259
4.89963
4.75706
4.86264
4.91758
4.91714
4.93378
4.87342
4.93329
4.95196
4.92322
4.93971
4.93307
4.88219
4.96791
4.84877
4.86263
4.74885
4.71797
4.92939
4.75295
4.89659
5.02302
4.88502
4.88008
4.94781
4.94355
4.88354
4.90143
4.87618
4.94151
4.95668
4.85785
4.98384
4.95721
4.90339
4.83192
4.9861
4.91583
5.02001
4.95451
4.90374
4.77926
4.94258
4.88878
4.90062
4.95079
4.88426
4.9581
4.9792
4.94103
4.97435
5.0037
4.93379
4.9665
5.01193
4.92566
4.978
4.89121
4.8812
4.89618
4.81636
4.89183
4.95457
4.88137
4.96691
4.91692
4.83615
4.90985
4.87586
4.8108
4.87345
4.86765
4.70205
4.87749
4.96339
4.87409
4.73125
4.95839
4.9118
4.89804
4.93841
4.90928
4.83356
4.91862
4.88487
4.97959
4.9871
4.95474
4.91225
4.9494
4.93082
4.96251
4.92701
4.98572
4.93482
4.94502
4.87711
5.0218
4.90374
4.97008
4.98693
4.88776
5.01454
4.91647
4.90788
5.00893
4.99054
4.91354
4.94034
4.97239
4.94176
4.97417
4.76365
4.81615
4.9846
4.93523
4.94056
4.96684
5.04222
4.93928
4.94838
4.87709
4.83041
4.9553
4.94408
4.92445
4.96465
4.83342
4.88331
4.94155
4.89069
4.87563
4.87717
4.85119
4.92732
4.89672
4.94018
4.95329
5.01049
4.979
4.91522
4.87768
4.91359
4.9348
4.91576
5.02897
4.92827
4.93856
4.87217
4.92616
4.86715
4.8349
5.00132
4.7316
4.9305
4.8948
4.86368
4.90838
4.90515
4.93347
4.90176
4.91645
4.94751
4.92057
4.78849
4.9401
4.9273
4.83331
4.91538
4.82709
4.92563
5.00037
4.7301
4.914
4.89195
4.86134
4.93853
4.98631
4.94556
4.8836
4.947
4.7359
4.87193
4.91616
4.89133
4.9651
4.83868
4.89634
4.93456
4.83724
4.87207
4.86928
4.86625
4.91679
4.94826
4.85793
4.94022
4.9767
4.92291
4.923
4.9338
4.72456
2.63247
2.21822
2.37475
2.32555
2.29411
1.94566
2.35746
2.331
2.1249
2.12389
2.24246
2.37268
2.04216
2.49379
1.53587
2.24421
2.21116
2.04387
2.20167
1.93109
2.2397
1.87949
1.84649
2.03925
2.01046
2.17965
1.71962
2.26197
2.11752
2.05367
1.65552
2.16372
2.007
2.37309
1.4895
2.01816
2.07619
2.1938
2.03034
2.1686
2.05932
1.78103
2.27911
1.82263
2.0605
2.05572
1.70262
1.95368
1.89981
2.09051
1.91205
1.97779
1.96019
2.31334
1.91145
1.4879
2.07005
1.83941
1.97753
1.934
2.34638
2.44423
2.19927
1.53523
2.09836
2.10328
1.7129
1.8786
2.31312
2.03855
1.78804
1.82811
1.97815
2.15398
1.91694
2.25123
1.98634
2.07901
1.87328
1.6187
1.73706
2.23966
1.95353
1.75452
2.01675
2.18209
1.90842
2.1975
2.25052
1.80956
1.71545
1.89882
2.02574
1.99775
2.05247
1.99163
1.64344
1.88883
2.12648
1.92771
1.8916
2.25799
1.91495
1.68092
1.86069
2.28008
2.10392
1.85412
1.89606
1.99756
2.18219
1.77047
2.03164
2.0153
1.86911
2.08828
1.71505
2.10457
1.71938
2.21845
1.97234
2.18642
1.96197
2.30794
2.06562
1.94413
1.92546
1.97214
2.01414
2.08888
1.7498
1.9938
1.74964
2.04142
2.00835
1.62615
2.18842
1.98353
1.9306
1.82597
1.95377
2.02132
1.79719
1.95144
2.38966
2.33709
1.81844
1.99201
2.04423
1.85021
1.63908
2.36236
1.71604
2.14783
2.04892
1.8006
2.01247
1.91804
2.14762
1.78546
1.99468
2.16198
2.15699
2.07399
2.17309
1.73085
1.97795
2.01521
2.06525
2.00399
2.08845
2.04617
2.0293
2.29358
2.35042
2.18242
1.67898
2.23897
1.71101
2.14726
2.27049
2.01694
1.91203
1.89752
1.72147
1.86495
2.10736
2.22336
2.25978
1.52861
2.14279
2.13781
2.01778
1.89867
1.52512
1.89294
2.05694
2.2478
1.76344
2.34171
1.83563
1.74048
2.11236
2.27891
1.88251
1.80098
1.99779
1.97391
2.0756
1.98529
1.98946
2.17306
1.91551
2.08627
1.58173
1.89121
2.42255
1.89029
2.03565
1.68589
2.329
2.02939
1.84977
2.20718
2.1003
1.93475
2.19078
2.33355
1.9942
2.01684
2.05667
1.94452
1.92975
1.726
1.75292
2.0795
2.14267
2.00313
1.74758
1.94018
1.50791
2.05708
1.85079
2.31142
1.75889
2.01112
1.97119
2.34204
1.73306
2.174
2.14377
1.89486
1.88626
2.2391
1.93943
1.84603
2.10945
1.53114
2.02625
2.04534
1.62797
1.82737
2.00895
1.85386
1.88781
1.99819
1.79261
1.99201
2.04421
2.01308
2.09611
1.93285
2.06175
1.96455
1.82126
2.01205
2.09927
2.04942
1.88682
1.85495
2.22696
1.79468
1.98396
2.09229
1.79355
1.89776
1.81136
1.67353
1.83891
2.13867
1.74316
1.8075
1.99812
2.00355
2.04735
2.18052
2.12509
1.55954
2.10204
1.92799
2.05301
1.95511
2.11146
2.38912
1.85674
1.81377
2.01854
1.87609
1.92163
2.21566
2.05116
1.62713
1.83622
1.95718
1.89354
2.07254
1.80798
2.04311
1.99033
2.10444
2.03682
2.02156
1.84423
2.28413
1.81427
1.93193
1.59922
1.5389
2.19383
1.63845
1.98218
2.3914
1.88488
1.96306
2.1228
2.05696
1.94058
2.04573
1.98703
2.0742
2.26913
1.95715
2.34038
2.18212
1.99105
1.7907
2.22591
1.96137
2.38916
2.16837
2.03273
1.7167
2.12259
1.89002
1.92257
2.04861
1.95182
2.09001
2.19713
2.02578
2.16186
2.26594
2.01762
2.11998
2.3162
1.97561
2.19144
1.8964
1.89679
2.06176
1.74527
1.99805
2.18559
2.02471
2.34606
2.1466
1.9016
2.22606
2.01787
2.01092
2.01954
2.04338
1.45448
1.99252
2.24822
2.02562
1.62468
2.24907
1.8637
1.90992
2.04394
1.98945
1.62638
1.93842
1.80248
2.16669
2.11428
1.99815
1.82544
2.0171
1.90637
1.98935
1.91843
2.04409
1.96438
1.98844
1.73405
2.19465
1.82257
1.98504
2.18932
1.82058
2.33704
2.00236
1.93943
2.2568
2.161
1.95867
2.10179
2.09693
1.92796
2.14572
1.56891
1.64921
2.14988
1.92372
1.94614
2.0051
2.35472
1.93061
2.0145
1.81984
1.68009
2.07197
1.99176
1.91274
2.01214
1.78329
1.81628
2.14946
1.95836
1.85939
1.87035
1.82522
2.08965
1.96314
1.99086
2.10476
2.24651
2.2439
1.9328
1.92472
1.95891
1.98615
1.98822
2.3272
1.97105
2.08361
1.97977
2.23411
2.05277
1.8555
2.41571
1.53902
2.21217
1.89304
1.81806
1.95147
1.96759
2.00878
1.98897
2.04689
2.11919
2.06077
1.69763
2.18562
2.1695
1.73729
2.05737
1.73746
2.03802
2.36914
1.45238
2.13323
2.0406
1.8933
2.06894
2.1714
2.17753
1.90407
2.21587
1.62655
1.91562
2.03526
1.92187
2.24138
1.8093
2.0228
2.10833
1.8127
2.00184
2.01868
1.8596
2.08291
2.10498
1.80151
2.03335
2.12372
1.84678
1.92366
2.01578
1.46133
1.35125
2.31703
1.55148
2.27752
1.53026
2.46049
1.70657
1.98521
2.10401
2.29554
1.88845
1.64082
2.5134
1.57682
2.69923
1.717
1.63787
1.93212
1.58668
2.14551
1.68166
2.23367
2.20319
1.8325
1.53836
1.52443
2.15248
1.1592
1.63772
1.79127
2.15154
1.32163
1.66753
1.16491
2.3531
1.46955
1.27542
1.15689
1.32448
1.17549
1.59246
1.8428
1.01861
1.64849
1.23085
1.53644
1.84525
1.48381
1.33983
1.36734
1.53795
1.34955
1.51212
0.92234
1.83166
2.15683
1.42425
1.60988
1.59886
1.52355
0.854169
0.781441
1.23281
2.07184
1.17911
1.32787
1.84875
1.55501
0.88154
1.32624
1.64882
1.49487
1.39636
1.03186
1.59869
0.821459
1.35825
1.18797
1.60284
1.93817
1.65674
1.16495
1.58226
1.94719
1.3954
1.32962
1.54032
1.11096
1.0369
1.81156
1.87333
1.57822
1.30827
1.55132
1.21394
1.59478
1.99842
1.53413
1.234
1.29846
1.61042
0.937901
1.5357
1.95704
1.54535
0.897967
1.14487
1.54049
1.55763
1.30704
1.18485
1.79177
1.3995
1.16531
1.68956
1.28686
1.70493
1.34425
1.98089
1.34704
1.30571
1.13744
1.67126
1.10088
1.59059
1.61175
1.52066
1.17539
1.37974
1.17708
1.85036
1.45829
1.94865
1.33354
1.59005
2.06673
1.3333
1.48692
1.75258
1.55909
1.28997
1.39523
1.89456
1.50716
0.908434
0.993245
1.59826
1.54373
1.42961
1.79965
2.01924
0.907951
1.91962
1.08713
1.36694
1.71116
1.49402
1.53585
1.26255
1.88396
1.41237
1.19804
0.924574
1.19408
1.21883
1.8438
1.47743
1.25633
1.32952
1.39949
1.09235
1.30598
1.41534
1.07336
0.917969
1.28366
1.90372
1.13472
1.84007
1.27641
1.05263
1.31235
1.49913
1.64346
1.83278
1.70196
1.42234
1.34732
1.2192
2.08469
1.13655
1.31737
1.38375
1.63838
2.15652
1.70571
1.40972
0.967044
1.74657
0.895475
1.64784
1.85321
1.20931
1.17206
1.5315
1.71978
1.23751
1.33204
0.962598
1.52581
1.40969
1.10768
1.65389
1.3478
2.03944
1.63422
0.956896
1.61625
1.42582
1.81159
0.956479
1.26784
1.65798
1.0721
1.12562
1.47691
1.29366
0.843022
1.47967
1.42388
1.27628
1.39833
1.5036
1.83264
1.84714
1.28633
1.13349
1.43019
1.76099
1.51709
2.21264
1.30392
1.70321
1.03978
1.71043
1.50816
1.47953
0.900165
1.76829
1.21849
1.21231
1.62739
1.59917
1.0262
1.45392
1.74353
1.54492
2.12306
1.2932
1.46939
2.00854
1.75135
1.31827
1.55932
1.52889
1.38963
1.58263
1.38197
1.19479
1.35729
1.15285
1.48698
1.24606
1.36727
1.75198
1.34768
1.30659
1.31402
1.56497
1.31185
0.997624
1.84099
1.34951
1.19887
1.81838
1.59842
1.68708
2.0148
1.65449
1.21192
1.87223
1.72501
1.42014
1.44435
1.53841
1.19507
1.20069
2.12099
1.26245
1.61399
1.28448
1.5421
1.23236
0.831502
1.68397
1.72479
1.41261
1.53243
1.56801
1.01209
1.33883
1.98367
1.75342
1.47669
1.49418
1.16904
1.65314
1.3814
1.75956
1.06509
1.28628
1.39696
1.65527
0.788318
1.73155
1.49849
2.09818
2.19349
1.29919
1.98267
1.56989
0.843738
1.55082
1.31395
1.19555
1.39151
1.52136
1.35357
1.43332
1.61638
1.02126
1.4317
0.985119
1.28195
1.47704
1.74008
1.28923
1.60294
0.787122
1.16323
1.37098
1.78136
1.31452
1.5733
1.52513
1.41877
1.40557
1.40619
1.16714
1.45103
1.24374
1.03184
1.34459
1.22542
0.821038
1.45418
1.15002
1.6154
1.6036
1.2436
1.8428
1.52136
1.23433
1.35298
0.880886
1.34045
1.60022
1.19484
1.74933
1.17633
1.4879
1.36323
2.30511
1.57654
1.27325
1.41271
1.9404
1.08187
1.85646
1.52001
1.39558
1.40606
2.20128
1.65532
1.73471
1.09605
1.24376
1.32393
1.54116
1.26811
1.42248
1.3982
1.50228
1.64064
1.45879
1.3922
1.77054
1.22987
1.63869
1.56739
1.06522
1.6679
0.942496
1.38012
1.5547
1.13042
1.45617
1.52752
1.04205
1.14229
1.58028
1.28417
2.02017
1.96261
1.18321
1.46077
1.36195
1.33061
0.733389
1.48728
1.30528
1.58658
1.82129
1.26087
1.33616
1.5054
1.5459
1.45421
1.7399
1.05584
1.4172
1.73414
1.64418
1.64853
1.18485
1.2831
1.54448
1.2293
1.19168
1.0949
1.83485
1.53106
1.61611
1.4795
1.22988
1.0096
1.51225
1.29816
1.44778
1.18306
1.36593
1.69733
0.936183
2.13998
1.05307
1.68131
1.7323
1.53799
1.53104
1.57204
1.37877
1.24063
1.22031
1.40189
1.90995
1.16644
1.1419
1.8216
1.30672
1.76864
1.4138
0.811512
2.23486
1.09104
1.18385
1.48789
1.26559
1.2589
1.06681
1.61796
1.1848
1.96059
1.70582
1.39156
1.62789
1.05513
1.71382
1.35565
1.28112
1.75428
1.4613
1.47428
1.8123
1.19713
1.22836
1.55655
1.34116
1.15492
1.76655
1.53895
1.40567
2.22642
2.79938
1.20645
2.34084
0.989534
2.68352
0.81749
2.10391
1.25915
1.55504
0.949242
1.96351
1.50124
0.673096
1.83105
0.221182
1.57152
1.53248
1.48756
1.55909
0.904174
1.40106
0.652944
0.676413
1.46695
1.62329
1.37262
0.725143
1.99384
1.20259
1.03576
0.446147
1.64142
1.16167
1.86361
0.348981
1.32559
1.47809
1.53834
1.38285
1.48938
0.798828
0.582376
1.93428
1.16058
1.66249
1.00142
0.607664
1.1002
1.34303
0.944732
0.937786
1.29292
0.867772
1.79797
0.799718
0.460914
1.10228
0.759251
0.662802
1.07779
1.91882
1.96971
1.59548
0.583649
1.5071
1.11541
0.345422
0.837204
1.63603
1.12416
0.854705
0.970336
0.994345
1.39042
0.884406
1.74315
1.21009
1.43102
0.91092
0.518324
1.01069
1.43237
0.803156
0.587534
1.30954
1.31358
1.06013
1.49658
1.62566
0.61427
0.583241
0.899603
1.14748
0.664811
1.46939
0.695139
0.353172
1.17576
1.38253
1.37087
0.788672
1.72991
0.902724
0.337549
0.971345
1.74843
1.43087
0.924847
0.592984
1.09485
1.32861
0.840848
1.24882
1.49954
0.965584
1.00168
1.19632
1.37816
0.546289
1.21027
1.41539
1.33411
0.696881
1.4306
0.861214
0.869642
1.11677
1.51101
0.891264
1.62229
0.740782
1.1623
0.523121
1.29612
0.896059
0.178434
1.2037
1.12426
0.515474
0.975298
1.49624
1.01702
0.568987
1.1471
1.77374
1.70796
1.19381
0.955771
1.14317
0.632059
0.174097
1.73958
0.347413
1.6198
1.32691
0.969879
1.16086
0.948243
1.36643
0.589827
1.20123
1.47411
1.97064
1.46482
1.2403
0.764871
1.22046
1.6107
1.28955
1.05655
1.43008
1.02414
0.88066
1.46056
1.9043
1.32783
0.573589
1.60314
0.683958
1.32195
1.47153
1.15419
0.966303
0.635564
0.298745
0.700186
1.08278
1.2206
1.38492
0.610281
1.74671
1.23844
1.2638
0.988724
0.458984
0.948225
1.28239
1.76091
0.731292
1.77563
0.815984
0.632184
1.5954
1.52919
1.22527
0.892046
1.50879
0.905068
1.88869
0.993148
1.14488
1.57103
0.865121
1.3125
0.586416
1.25779
1.70716
1.05336
1.11625
0.896134
1.65793
1.37374
0.774453
1.58252
1.62147
1.34625
1.28918
1.87333
1.06904
1.13403
1.36516
1.25433
1.18634
0.700033
0.692214
1.35821
1.51966
1.10371
0.731112
1.17423
0.179429
1.22243
0.853884
1.53746
0.808803
1.03102
1.10731
1.95507
0.978405
1.42975
1.49492
0.908945
0.866395
1.50994
1.11363
0.695482
0.818824
0.426491
1.49761
1.1168
0.38175
0.785731
1.31494
0.99842
0.857474
0.978636
1.07823
1.11228
1.3913
1.04465
1.29104
0.584494
0.990071
1.32017
0.569411
1.03744
1.03271
1.12406
0.78551
1.30913
1.65227
0.578482
1.26922
1.38274
0.554036
0.970214
0.926927
0.591896
0.967795
1.34186
0.552143
0.68013
1.10109
1.12086
0.992438
1.49071
1.44719
0.251624
1.4397
0.904947
1.24419
0.996155
1.43205
1.8749
0.903076
0.81866
1.16868
1.12392
0.983104
1.87517
1.37701
0.388153
0.625854
1.01159
1.0393
1.02548
0.697623
1.02886
0.516759
1.35856
1.43439
1.07047
0.793337
1.99964
0.650856
1.19913
0.37523
0.154186
1.2197
0.420618
0.965453
1.81839
1.12357
1.416
1.48814
1.25881
0.977008
1.24567
1.16801
0.892587
1.69793
1.27386
1.63433
1.15285
1.19249
0.776597
1.307
1.00217
2.05466
1.42948
1.29141
0.837821
1.24402
0.867344
0.957617
1.1624
1.21184
1.26184
1.48372
1.11607
1.17664
1.53441
1.26037
1.30736
1.92828
1.03237
1.2741
0.852271
0.914894
1.47782
0.785252
1.0724
1.53361
1.41212
2.02167
1.22685
1.12231
1.46968
0.615896
1.56401
1.00411
1.33233
0.0846988
1.07634
1.39763
1.47285
0.758391
1.63366
0.588562
1.04623
1.04582
1.18247
0.105113
0.841407
0.67749
1.26696
0.967122
1.1406
0.922921
1.02268
1.01474
1.17641
1.0504
0.756524
1.13041
1.19619
0.803004
1.38297
0.926891
0.886097
1.44777
0.86476
1.70648
1.1931
0.971216
1.6378
1.03648
1.01906
1.75149
1.5268
0.868018
1.22771
0.689844
0.568496
1.41469
0.998288
1.18247
1.18807
1.92479
0.972398
1.26676
0.952081
0.660607
1.05282
1.08231
0.796072
0.701905
1.02156
0.654043
1.51513
1.04721
0.63704
0.975975
0.902867
1.45975
1.51817
0.93862
1.3139
1.38083
1.59659
0.635007
1.09306
0.649162
1.01149
1.5577
1.60728
1.03369
1.33018
1.19976
1.46323
1.31293
0.953584
1.71895
0.210887
1.52908
0.868846
0.728482
1.08827
0.917572
0.982692
1.32106
1.4685
1.44956
1.09246
0.423026
1.36107
1.29589
0.728131
1.37833
0.77668
1.22192
2.02397
0.178145
1.63973
1.51443
0.911832
1.2974
1.17769
1.40388
0.858666
1.48408
0.655601
0.870062
1.33758
0.858049
1.5684
0.707017
1.22989
1.43949
0.863149
1.12846
1.0334
0.574206
1.38863
1.35661
0.9311
1.10583
1.36054
0.568575
0.878614
1.22155
0.309808
0.620896
1.67055
2.28927
1.42821
0.995226
2.14431
1.80933
1.51157
2.15001
2.23283
1.12122
2.30204
2.75654
1.41195
2.702
1.1749
1.33795
0.633213
1.50727
1.83246
1.39141
2.45123
2.48083
0.723505
0.262011
0.94245
1.60574
0.33379
1.15135
1.86964
2.04951
0.501413
1.30552
0.871984
2.71901
0.74001
0.703879
0.504136
0.781628
0.599943
1.44494
1.97202
0.231144
1.22686
0.530528
1.45316
1.78681
0.84237
0.439527
1.36687
1.21783
0.765051
1.50435
0.460488
1.96665
2.48796
1.21959
1.66992
1.80216
1.21471
0.2977
0.455314
0.987636
2.47566
0.581249
1.10743
1.68542
1.27496
0.513934
1.04183
1.13522
1.06872
1.07665
0.805808
0.891151
0.42053
0.938122
0.556482
1.31399
1.58091
0.864033
0.356695
1.53978
1.50761
0.846488
0.953784
1.20091
0.702726
0.499112
1.84573
1.9973
1.14648
0.997877
1.60599
0.574789
1.8439
2.00764
0.910242
0.677059
0.673794
1.32544
0.159927
1.28624
2.0063
0.849258
0.0879703
0.634283
1.11879
1.16475
0.972323
0.702978
1.2725
0.849407
0.575801
1.01987
1.53983
0.768789
0.883031
1.68864
0.770908
0.0338326
0.769679
1.70434
0.800115
1.54342
1.30509
0.699347
0.585577
1.07678
0.129211
1.22501
0.893214
1.684
0.822314
1.46312
1.94405
1.27211
1.02751
1.76738
1.04684
0.404137
1.15955
1.37934
1.16761
0.807585
0.633299
0.900743
1.30167
1.0058
1.59516
1.59357
0.10919
1.82296
0.45248
0.765242
1.16792
1.06244
1.7611
0.774977
1.63294
0.989777
0.768659
0.0136267
0.756257
1.1768
1.38148
1.00984
0.401019
0.856029
1.10782
0.564344
1.20548
1.42691
0.805788
0.138297
1.12092
2.13288
0.733739
2.10114
1.0791
0.947733
0.994265
0.877889
1.32203
1.44048
1.58669
1.39448
1.3169
1.30519
2.53275
0.475309
1.00463
0.798584
1.37182
2.38312
1.34266
0.635314
0.190612
1.6593
0.609802
1.63036
1.69575
0.573707
0.769842
0.93873
1.1844
0.471695
1.38981
0.0752029
1.07637
0.976458
0.440356
1.37237
1.02982
2.15949
1.20554
0.903959
1.3023
1.14921
1.23845
0.341314
0.863842
1.62663
0.577471
0.611032
1.05264
1.5591
0.451469
1.24024
1.00647
0.804228
0.867592
0.890334
1.47905
1.14907
0.669291
0.625676
1.21851
1.82014
1.02166
2.24913
1.07695
1.04623
0.490341
1.38622
1.16407
1.11658
0.0958249
1.06159
0.602256
0.238426
1.07102
1.16862
0.42473
0.871977
1.36861
1.50246
2.3361
0.82728
1.05527
1.99219
1.48681
0.63166
1.0233
1.27254
1.16947
0.888928
0.950236
0.611491
1.101
0.525087
0.972285
0.999916
0.342153
1.47357
1.05608
1.01481
0.727348
1.03798
0.177768
0.118226
1.08767
0.0813955
0.378094
1.55055
0.96011
1.32411
2.24647
1.20251
0.878341
1.62382
1.54136
0.933769
0.942438
1.16167
0.602952
0.76877
1.69248
0.473323
1.1237
0.811238
0.993869
0.647617
0.358338
1.3453
1.26061
0.929407
0.941203
1.20745
0.142238
0.993261
1.93609
1.67282
0.924166
0.834754
1.0211
1.30362
1.21126
1.92144
1.06271
0.314093
1.02024
1.42978
0.0353168
1.74022
0.813597
1.95497
2.37654
1.46763
1.99208
1.34236
0.234363
0.945932
0.646128
0.541452
0.444701
1.12774
0.908923
0.939019
0.960991
0.358203
1.0057
0.813375
1.23797
0.93782
1.52138
0.871409
1.23261
0.0464184
0.923657
1.07539
2.2075
0.90481
1.24892
1.09886
0.870666
0.874686
0.94099
0.700863
1.13889
1.07987
0.161775
0.561251
0.895788
0.0987777
1.3002
1.17767
1.34298
1.16069
0.364647
1.23695
1.23283
0.656601
0.800043
0.214802
0.861962
0.458324
0.532232
1.74974
0.486051
1.00445
0.594884
1.67397
1.14763
1.07208
0.920008
2.44147
0.742105
1.63928
1.11657
1.24979
1.05232
1.80799
1.09135
1.40238
0.892285
1.42015
0.922808
1.20724
1.02251
1.02476
0.766499
1.28724
1.90258
1.20596
1.05861
1.20344
0.519497
1.0695
1.2608
0.736523
1.48115
0.786865
1.2863
1.33991
0.450904
1.61376
1.44897
0.282612
0.509842
1.20726
1.16921
2.38779
1.35085
0.385596
1.09166
0.964109
1.13623
0.259771
1.25642
0.731017
1.1976
2.03457
1.20175
0.866834
1.08059
1.08881
0.463197
1.16389
0.399961
1.16467
1.57983
1.08056
1.1399
0.582784
0.416479
1.1058
0.855076
0.775719
0.661868
1.8599
1.11354
1.72424
1.1612
0.763632
1.07393
1.35959
0.829925
0.789572
1.79879
0.721373
1.06943
0.353404
2.14025
0.687001
1.23129
1.36391
0.853865
1.32036
1.11178
0.734646
0.538755
0.508841
1.01389
1.76944
0.760777
0.918667
1.39736
0.70673
1.40235
0.945449
0.271501
2.0058
0.405088
0.54845
1.32889
0.758713
1.00572
0.870197
1.37354
0.762265
2.19777
1.49281
0.528333
1.25117
0.652007
1.55142
0.647641
0.197267
0.957576
1.02383
1.6789
1.55153
0.668158
0.711859
1.27888
0.917533
0.733183
1.41063
1.08262
1.03154
2.48008
2.98252
2.24318
0.257003
3.14217
1.58777
1.35092
0.168525
2.95184
0.0530881
1.90126
1.16848
2.00788
0.715702
2.47721
1.62162
1.7225
0.872474
2.36412
1.10965
0.845803
1.60727
0.233338
0.108669
1.92801
0.139077
1.04246
0.584744
2.04497
1.06468
0.406904
1.77058
1.35697
1.15416
1.88296
1.85222
0.748501
0.733006
1.44397
1.41
1.35057
0.39628
0.185499
2.1796
1.18115
1.73827
0.627619
1.80489
0.411143
1.30018
0.290699
0.604735
1.06271
0.383651
1.57425
0.120086
2.19797
0.18699
0.0558525
0.0396837
0.878342
1.87447
2.29856
1.29048
1.80572
0.616962
0.769727
1.12296
0.358348
2.0105
0.770855
0.608023
0.615036
0.511451
0.798619
1.06064
2.01624
0.995206
1.63517
0.638991
1.32721
1.07198
1.28737
0.0470432
0.430032
0.828684
1.61893
0.569478
1.28172
1.61696
0.0212611
1.87827
0.359152
0.763536
0.153869
1.20305
0.299358
1.93528
1.24643
1.45527
1.56406
0.690888
1.86407
0.468308
1.86599
1.28632
1.99513
1.34636
0.701244
1.00996
0.498643
1.35295
0.97757
1.37461
1.41898
0.656377
0.16124
1.82162
1.52046
0.3769
0.933863
0.0675869
0.537743
0.111286
1.44108
1.49293
0.516282
1.08148
0.671218
0.779135
1.87723
0.713882
1.19002
0.429067
1.39441
0.30139
1.43242
2.06943
1.37157
0.153907
0.928111
1.36781
0.481216
0.148635
0.589406
2.49505
1.70743
1.69408
0.849947
1.07335
0.31876
0.997684
1.91354
1.31404
1.3473
1.48625
1.39179
1.04962
1.82593
1.07915
0.288393
1.01274
1.18895
1.66143
0.682918
0.275364
0.818247
0.988823
1.71527
0.90887
0.213299
0.767713
0.0590758
0.17663
1.68257
2.3317
0.906898
1.75899
1.16023
1.77516
0.943989
2.2057
0.867611
0.951657
0.364259
1.05772
0.466695
0.676851
1.71441
0.201709
1.72906
1.09657
0.739777
1.1125
0.272726
1.99846
0.65801
1.49348
1.90941
0.200588
2.3436
0.202218
0.483779
1.72754
1.95801
1.24333
0.615369
1.04018
0.0772328
1.60556
0.848489
1.03711
1.50738
0.376572
0.849727
1.53307
1.27484
2.89551
0.744984
0.936389
1.20318
1.54199
1.11384
0.0124994
1.14478
0.851823
0.961192
2.15537
1.8425
0.660112
0.836974
1.04673
1.0258
1.11417
0.0758594
0.168738
1.02056
1.21298
0.409519
1.389
0.688743
1.52113
0.644095
0.975115
1.36908
0.547163
0.726547
0.897755
1.8981
1.28308
1.40054
1.23939
0.563366
0.55588
1.30065
0.862476
0.325287
0.454075
1.77818
1.23325
0.922661
1.63773
0.30949
1.47706
0.885999
0.469805
0.605361
0.939397
1.00076
1.51394
0.765059
1.1873
0.46627
0.586577
1.56236
0.385175
0.66761
0.509902
0.889939
0.280796
0.0237382
1.80661
0.439205
0.531676
1.15854
0.0199894
1.09289
0.226818
2.07507
0.374038
0.823737
0.597767
0.161833
0.928125
0.930655
1.08789
1.30983
0.84949
0.260312
1.40606
0.720163
1.05414
0.742987
1.08059
2.41265
0.712337
0.776738
1.05209
1.0559
0.922775
2.1696
0.921018
1.52515
0.00582604
0.874659
0.428183
0.0421213
0.190623
0.466498
1.12004
0.358578
1.25214
0.626312
0.419664
1.94563
0.340557
1.14852
1.42193
1.76963
0.0487372
1.44436
0.494273
1.81544
1.16378
1.19964
1.01885
0.405547
0.453031
0.99125
0.856394
0.18557
1.47164
0.833313
2.20211
0.456525
1.11264
0.553121
1.51969
0.838834
2.3723
1.06779
0.613868
1.83369
0.207532
0.299535
0.616773
1.06533
0.859646
1.4294
1.36568
0.853993
0.682148
1.16671
1.32123
0.866576
1.67174
0.478826
0.597196
0.577485
0.812403
1.54074
1.23497
0.973338
1.89547
1.50111
2.67381
0.983603
0.23175
1.00343
0.959607
0.742657
0.289288
0.852026
0.0491931
0.631056
2.08068
1.29091
2.21627
1.37867
0.674967
1.08805
0.491983
0.204976
0.817629
0.414786
0.330455
0.404641
0.073276
0.664973
0.0696955
0.13277
0.317846
1.07053
0.571829
2.12904
0.751396
0.922323
1.05904
1.52949
0.947481
0.505376
1.18648
0.74681
2.66173
0.785091
0.547023
1.39109
1.84232
0.348657
1.29804
1.3303
0.578341
0.384361
1.7553
0.239302
1.1493
0.506953
0.64011
0.772163
2.18664
0.793032
1.23397
0.410615
1.65884
0.30775
0.564549
0.377702
0.57982
0.515157
0.697109
1.26556
0.0193657
0.263417
0.690854
0.639322
1.36212
1.44228
0.773761
1.01615
1.27852
1.36434
1.43081
0.891788
0.214391
0.874379
1.37907
2.61127
0.764236
1.11443
1.05388
2.59868
1.13284
0.923175
1.3404
1.14023
1.17208
0.682974
0.624786
1.24271
0.384295
1.05213
1.18241
1.44475
1.25689
0.350975
0.886866
0.829291
0.255732
0.425118
1.19538
0.550797
1.25366
2.65541
1.14964
1.42556
1.09088
0.179933
0.619752
0.286131
0.716059
0.383405
1.04095
1.64816
0.440285
1.31198
0.707736
1.98171
0.0049991
0.900107
0.446537
0.795343
0.727686
1.99295
0.0131468
1.13892
1.05409
0.659161
1.3075
1.16273
0.254554
0.755198
0.500546
1.80759
2.22239
2.37458
1.66525
1.53154
0.616878
1.35391
2.38705
0.448503
3.29734
1.22776
3.20901
0.373232
3.38925
1.40239
2.82069
0.130882
1.75325
0.232566
0.844803
1.63633
1.47048
2.81998
3.59635
1.17826
1.28359
1.53869
2.39633
1.77839
0.634538
2.18022
1.44187
0.77456
1.33921
1.76413
1.38887
0.30555
0.776067
0.235357
0.50516
0.947775
1.3219
2.80828
0.0550302
2.26468
0.811614
0.548143
0.439329
0.465196
0.0472631
1.9562
1.37197
0.426321
1.75779
1.05662
2.05138
1.09205
1.18609
1.75775
1.83235
1.04832
0.639664
1.23486
0.760964
0.973206
0.446343
0.886331
1.40194
1.34601
1.40097
0.776523
1.28007
1.17217
0.796427
0.490996
0.256336
0.964647
0.372337
1.46062
0.990358
1.3408
1.6358
0.959773
2.02724
0.650726
0.686344
1.18047
0.948278
0.578738
0.183207
1.87625
1.00751
1.04476
0.902063
1.76291
0.891013
2.56208
1.29747
1.94834
0.398966
1.54073
1.38284
1.02748
0.930357
0.878747
0.0689695
1.32705
0.153751
0.87567
0.858488
1.03522
0.613684
1.82389
0.430536
0.717376
0.516529
1.11196
2.09094
0.747797
1.87869
0.046392
0.255423
0.869129
1.80454
1.51439
1.50231
0.774455
0.528303
0.345384
0.194951
0.714896
1.38818
0.606791
1.71615
0.0725696
1.29772
1.03344
2.1934
0.0416401
1.76994
0.170714
0.282359
0.910798
0.351597
0.855842
1.88639
1.40332
2.28697
1.02171
0.815034
2.27292
1.5381
1.42044
0.978223
0.62811
0.221819
2.36515
0.993907
1.01618
0.889868
1.58189
1.03868
0.73705
0.376781
0.588643
0.780789
2.39392
1.36043
1.10784
0.540158
1.05387
0.375107
1.28354
1.14891
1.1031
1.83616
0.900526
1.46727
0.94756
1.74168
1.19769
1.96324
0.477084
0.325661
1.53511
1.26207
2.3148
1.66714
1.53457
0.524914
1.23965
0.0384437
1.03186
0.574227
1.335
1.27138
1.86975
0.137982
1.43425
1.63118
1.53719
0.81041
2.59933
0.0213489
1.67665
1.24768
1.06707
0.313584
1.52757
0.00962193
0.582643
1.48488
0.223554
1.17473
0.730342
2.18659
1.81714
2.94741
0.965264
0.824898
2.12719
0.640926
0.42914
1.6635
0.249973
0.0452781
0.434176
1.73643
1.08426
0.859383
0.88108
0.682509
1.08045
0.708439
1.62754
0.381177
0.463779
0.423068
1.22697
1.4926
0.909265
1.54179
1.04181
0.499229
0.665825
1.33368
1.05698
0.613432
0.873367
2.0252
0.423996
0.984935
1.16901
1.0076
0.577475
0.376859
1.46109
2.26056
1.73691
1.47042
0.642878
0.926713
1.51582
0.052088
0.565658
1.23961
1.07161
1.21256
0.654291
1.24524
0.836596
0.238282
1.412
0.830557
0.45805
2.18994
0.768654
1.06937
0.507545
1.26842
0.366587
1.04629
1.19858
0.492015
0.350175
2.04994
0.538714
0.865531
0.949634
1.09991
1.28586
2.73452
1.27456
0.0845909
0.389725
0.996585
0.364445
0.883631
1.33969
0.240405
1.13546
0.502513
0.467935
0.063489
1.64053
0.980073
1.42828
0.493544
0.209302
0.58365
1.48973
1.17883
1.40378
1.61226
0.642386
0.746516
0.235678
1.16522
1.15146
1.28073
0.881155
0.181954
1.08166
1.08077
1.33806
2.48566
0.305376
0.91657
1.52107
2.25267
1.6778
1.05398
1.13791
0.210731
0.622052
0.406571
0.0165261
1.16157
0.806227
0.736563
0.631833
0.804008
0.706362
1.71702
0.71924
0.423628
1.86872
0.968765
0.448585
1.5356
0.75379
1.04605
0.964255
0.0562094
1.05201
0.956766
1.17382
0.321574
1.27162
0.320352
1.24097
1.49127
0.88565
0.0110871
0.561119
0.667859
1.541
1.59685
1.36136
0.893693
1.2533
2.55708
1.21811
1.96675
0.540992
2.32801
0.286115
0.256841
0.366328
1.19342
1.02825
1.0431
0.236426
1.0606
0.692794
1.86314
0.331238
1.25841
0.481622
2.05538
0.691319
1.3544
1.36523
0.338943
0.895316
1.67667
0.454514
1.77412
1.14186
1.49207
0.144947
0.812982
0.199894
0.790789
2.6716
1.14998
1.15989
2.10592
1.13805
1.15608
1.06219
0.864983
0.970034
2.57877
0.847455
1.07246
0.503885
1.61525
1.27783
0.284467
0.198535
1.10177
1.29136
1.17606
0.614829
0.0206387
1.17
1.25571
1.01139
1.22632
0.851556
0.283449
1.01185
1.30662
1.06869
0.596304
0.25181
0.397662
0.00907135
1.88903
0.161187
0.41182
1.81145
0.982996
1.32177
0.456436
0.825715
1.11015
0.818686
1.47705
0.170337
1.6756
0.217089
1.91586
0.576536
0.179729
2.37431
0.842928
0.364466
0.410708
0.252095
0.593059
0.559824
0.385321
1.41316
0.336177
1.01707
1.55506
0.0628914
1.19823
1.06737
0.343331
0.0743596
0.160962
0.508637
1.41631
0.432109
0.408221
1.81439
0.611273
1.58574
0.564421
2.2828
1.36447
0.200435
0.580463
1.1891
0.677628
0.960732
0.938575
1.56087
0.948689
1.88059
2.16049
1.55585