/*--------------------------------*- C++ -*----------------------------------*\
| =========                 |                                                 |
| \\      /  F ield         | OpenFOAM: The Open Source CFD Toolbox           |
|  \\    /   O peration     | Version:  v2012                                 |
|   \\  /    A nd           | Website:  www.openfoam.com                      |
|    \\/     M anipulation  |                                                 |
\*---------------------------------------------------------------------------*/
FoamFile
{
    version     2.0;
    format      ascii;
    class       volScalarField;
    location    "150";
    object      aU;
}
// * * * * * * * * * * * * * * * * * * * * * * * * * * * * * * * * * * * * * //

dimensions      [0 0 0 0 0 0 0];


internalField   nonuniform List<scalar> 
65536
(
0.000654903
0.000582173
0.000364779
0.000447249
0.000524182
0.000431812
0.000193357
0.000682947
0.000244495
0.000136197
0.000671481
0.000642918
0.000708252
0.000685551
0.000380919
0.000802079
0.000551904
0.000160358
0.000425269
0.000603557
0.000806712
0.000555718
0.000191566
0.000410877
0.000803764
0.00095464
0.00123578
0.000988852
0.000381337
0.000613901
0.00050884
0.000535605
0.00012394
0.000603016
0.000577695
0.000643032
0.000668883
0.000649627
6.63126e-05
0.000221806
0.000769194
0.00084715
0.000633527
0.000650213
0.000765801
0.000611694
0.000569554
0.000567468
0.000298657
0.000654641
0.000627769
0.000440228
0.000324296
0.000433384
0.000579732
0.000841875
0.000698291
0.000526819
0.000471258
0.000167766
0.000699895
0.00042433
0.000136459
0.000153356
0.000226867
0.000190994
0.000536148
0.000952807
0.000820665
0.000638808
0.000327804
0.000383929
0.000801405
0.000614906
0.000460515
0.000404416
0.000510303
0.000454547
0.000313717
0.00060939
0.000751073
0.000603443
0.000453065
0.000224598
0.000245765
0.00024999
0.000679629
0.00101374
0.000785629
0.000368657
0.000145847
0.000226359
0.000278544
0.00018055
0.000412675
0.000495046
0.000443424
0.000399074
0.000493042
0.00033328
0.000224734
0.000659659
0.000480461
0.000695503
0.000186974
0.000382306
0.000750733
0.000590524
0.000816245
0.000513734
0.000185924
0.000397666
0.000653578
0.000603333
0.000761122
0.000267675
0.000770344
0.000642136
0.000644865
0.000749537
0.00066908
0.000520647
0.000458813
0.000696156
0.000840236
0.000535793
0.00036246
0.000574361
0.000635751
0.000655463
0.000450743
0.00052213
0.000304722
0.000200736
0.000477284
0.000686927
0.00017293
0.000227942
0.000510382
0.00042511
0.000448973
0.000388272
0.000518603
0.000582558
0.000270828
0.000237874
0.000418119
0.000541807
0.000298392
0.000580657
0.000751001
0.000542262
0.00073419
0.000469882
0.000229722
0.000201415
0.000226463
0.000244822
0.000490447
0.000563865
0.000529276
0.000656228
0.00100237
0.000459037
0.000123975
0.000167761
0.000244118
0.000240434
0.000352046
0.000611723
0.000305739
0.000299446
0.000407899
0.00100558
0.000609881
0.000698182
0.000811082
0.000361602
0.000653326
0.000410616
0.000581126
0.000636837
0.000455151
0.000140218
0.00087907
0.000979657
0.000678324
0.000438841
0.000572573
0.00068399
0.000481667
0.000493327
0.00017187
0.00042702
0.000369972
0.000442845
0.000885671
0.000891969
0.00076328
0.00028874
0.000564732
0.000277519
0.00042715
0.000711667
0.00116303
0.000946485
0.000453747
0.000566998
0.000539326
0.0005825
0.000214445
0.000183633
0.000550319
0.000655712
0.000677768
0.000764153
0.000753792
0.000369047
0.000415166
0.00070337
0.000490232
0.000109246
0.000416872
0.000276766
0.000504608
0.00038106
0.000756633
0.000669779
0.000382026
0.000352662
0.000327277
0.000699317
0.000707064
0.000991343
0.000692663
0.000448889
0.000183749
0.000667542
0.000546208
0.000440634
0.00034748
0.000672461
0.000338692
0.000793033
0.000815531
0.00104032
0.000868947
0.000584557
0.00064461
0.000435715
0.000760416
0.000974066
0.000409557
0.000749845
0.000266918
0.000800519
0.000629986
0.000329862
0.000231989
0.000460208
0.00022784
0.00065028
0.000707152
0.000627463
0.000145736
0.000303173
0.000265657
0.000410183
0.000432517
0.000543467
0.000262369
0.000837506
0.000817419
0.000538188
0.000209513
0.00015619
0.000261034
0.00056167
0.00053719
0.000430489
0.000482351
0.00021854
0.000492572
0.000729107
0.000589105
0.000682977
0.000541619
0.000743602
0.000732707
0.000237511
0.000550269
0.000520344
0.000720214
0.000387124
0.000435751
0.000488592
0.000374703
0.000240331
0.000564167
0.000472967
0.000242507
0.000176162
0.000109071
0.000374627
0.000324079
0.000571497
0.000533144
0.00030399
0.000120611
0.000144966
0.000141159
0.000425127
0.000872023
0.000288417
0.000512243
0.000297744
0.000546428
0.000300215
0.0006518
0.000572966
0.000575979
0.000594481
0.000388495
0.000342504
0.00025821
0.000400761
0.000303428
0.000408939
0.000137804
0.000709113
0.000753068
0.000352582
0.000431873
0.000505578
0.000255376
0.000398533
0.000387547
0.000511455
0.000222051
0.000401829
0.000444103
0.000729871
0.000444949
0.000128616
0.000612741
0.000938208
0.00054319
0.000715506
0.000168367
0.000290813
0.000399746
0.000421036
0.000396438
0.00035787
0.000139952
0.000139156
0.000617251
0.000620714
0.000691825
0.000474518
0.000139515
0.000138318
0.000179084
0.00010068
0.000295209
0.000301445
0.000322738
0.000224726
0.000393734
0.000524536
0.000447086
0.000479456
0.000468556
0.000410625
0.000195012
6.38598e-05
1.72228e-05
0.000296518
0.000285425
0.000545193
0.000626229
0.000759116
0.000249242
0.000706594
0.000755803
0.000588746
0.000211738
0.000516312
0.000603219
0.000431605
0.000368342
0.000513729
0.000483728
0.000338449
0.000122282
0.00025626
0.000264803
0.000435337
0.000365083
0.000110038
0.000293731
0.00022388
0.000416745
0.00029241
0.000687503
0.000380513
0.000305806
0.000183861
0.000440669
0.000472714
0.00030244
0.000287238
0.000478115
0.000446068
0.000397892
0.000765816
0.000428303
0.000555553
0.000430654
0.000296244
0.000479364
0.000296145
0.00045147
0.000298794
0.000486272
0.000615023
0.00068767
0.000744554
0.000363575
0.000257182
0.000403747
0.000464213
0.000694516
0.000330299
0.000530012
0.000148887
0.000260384
0.000372114
0.000572467
0.000618491
8.74147e-05
0.000644328
0.000484415
4.24048e-05
0.000224432
0.000175589
0.000363761
0.000262002
0.000473034
0.000210888
0.000490309
0.000839395
0.000701838
0.000905743
0.000398056
0.000221954
0.000505719
0.000620777
0.000577227
0.000401665
0.000106506
0.000284136
0.000515076
0.000594922
0.000460256
0.00056709
0.000674633
0.000359322
0.000247442
0.000517159
0.000565394
0.000529762
0.000311798
0.00040499
0.000357131
0.000272655
0.000145711
0.000353843
0.000576625
0.000341227
0.000497441
0.000805065
0.000907207
0.00105395
0.000887155
0.00060141
0.000195662
0.000318009
0.000831735
0.000999626
0.000301747
0.000480723
0.000672987
0.000449052
0.000492951
0.000167814
0.000703335
0.000596283
0.000522951
0.000312334
0.000471096
0.000604311
0.000829315
0.000839218
0.000520929
0.000436231
0.00051162
0.000448195
0.000509823
0.000373141
0.000283639
0.000408201
0.0015151
0.00141652
0.00137021
0.000735497
0.000404946
0.000511555
0.000418269
0.000593866
0.00139142
0.00125103
0.000993826
0.000477167
0.000642514
0.000910802
0.000600586
0.000542883
0.000809834
0.0012873
0.000852148
0.000862705
0.000554685
0.000540959
0.00073686
0.000782584
0.000345674
0.00188683
0.00143421
0.000369344
0.000737312
0.000311504
0.000550745
0.000673947
0.00135283
0.000581189
0.000316022
0.000601772
0.00128656
0.000479737
0.000431281
0.000415104
0.000581051
0.00100748
0.00114936
0.000223098
0.000363877
0.000651123
0.000349467
0.000128959
0.00108773
0.000510549
0.000418275
0.000426621
0.000292542
5.70304e-05
0.00101049
0.000464131
0.000542014
0.000591481
0.000228273
0.00044991
0.000235834
0.000580665
0.000275373
0.000188676
0.000268082
0.000167881
0.000545628
0.000498837
0.00120911
0.000604662
0.00010155
0.000164511
0.000800474
0.000542933
0.00055067
0.000482093
0.000383362
0.000244144
6.34992e-05
0.000756591
0.000498823
0.000782459
0.000375823
0.000689371
0.000101227
0.000200831
0.000472434
0.000801607
0.00053003
0.000534652
0.000555988
0.000426592
9.58844e-05
0.000244242
0.000477478
0.000462277
0.000397175
0.00052766
0.000306143
0.000285048
0.000140047
0.00021853
0.000969458
0.000259079
0.00017538
0.000192993
0.000335291
0.00102082
0.000330383
0.000459472
0.000940057
0.000436475
0.000397281
0.000964492
0.000341612
0.000915884
0.000279259
0.00101239
0.00105066
0.000504749
0.00079574
0.000925023
0.000146947
0.000572827
0.000663243
0.000505735
0.000379673
0.000569891
0.00101593
0.000336934
0.000511935
0.000364162
0.000542092
0.000201091
0.000436977
0.000611693
0.000509568
0.000620363
0.000160688
0.000735749
0.000419253
0.000231896
0.000299855
0.000524475
0.000227771
0.000182057
0.000332135
0.00034485
0.000625463
0.00101753
0.000204534
0.000819781
0.000154706
0.000788123
0.000221595
0.000556033
0.000170586
0.000547468
0.000667305
0.00032227
0.000485354
0.000882444
0.000409212
0.000588005
9.58807e-05
0.000249147
0.000676383
0.000900129
0.000741082
0.00013496
0.000752847
0.000517636
0.000303847
0.000280391
0.00080355
0.000363679
0.000354451
0.00094163
0.00076451
0.00128134
0.000559038
0.000194498
0.000401853
0.000565906
0.000531423
0.000607971
0.000368834
0.000664917
0.000396674
0.00089969
0.000584814
0.00041011
0.000774475
0.000873668
0.000497314
0.000186728
0.000683515
0.000969928
0.000628923
0.000764813
0.000152786
0.000463395
0.000129166
0.000886344
0.000779407
0.000685552
0.000729976
0.000340367
0.000332284
0.000666899
0.000722395
0.000613871
2.96099e-05
0.000638561
0.00104173
0.00102381
0.000224081
0.000522943
0.000656148
0.000372181
0.000472233
0.000647449
0.000314876
0.000344376
0.000168074
0.00123968
0.000775932
0.000626654
0.000664442
0.000351208
0.000584825
0.0002079
0.00117582
0.000524483
0.000883386
0.000246279
0.000294117
0.000132385
0.000553938
0.000328993
0.000913659
0.000615007
0.000271522
0.000955338
0.000804775
0.000766592
0.00109267
0.00101917
0.00029094
0.000644623
0.000623506
0.00034991
0.00100457
0.000253241
0.00120196
0.000147133
0.00059758
0.000503787
0.000680443
2.62372e-05
0.000694047
0.000818098
0.000538585
7.31704e-05
0.00105652
0.000312708
0.000275567
0.000772773
0.000564458
7.50748e-05
0.000909846
0.000252442
0.000710033
0.000649131
0.000252542
0.000662045
0.00049508
0.000246886
0.000858471
0.00103951
0.000966339
0.000421806
0.000330457
0.000482757
0.000731106
0.000315541
0.000814224
0.00110013
0.000794733
0.00101711
0.000529475
0.00113496
0.000749479
8.17511e-05
0.000469632
0.000591887
0.000152415
0.000153438
0.000238101
0.000203708
0.00078434
0.000372766
0.000477107
0.000469821
0.000675335
0.000423237
0.000277085
0.000406436
0.000198189
0.000313103
0.000217205
0.000813145
0.000406558
0.00125786
0.000591848
0.000422414
0.00047315
0.0007758
0.000646067
0.000896632
0.000722612
0.000647205
0.000362528
0.000800052
0.0010241
0.000280295
0.000281569
0.000494516
0.0014405
0.000721911
0.000561637
0.00105681
0.000741228
4.56986e-05
0.000153863
0.000335421
0.00107366
0.000696494
0.000582939
0.000561168
0.000740225
0.00012578
0.000613021
0.000818116
0.000943525
0.000526416
0.0016492
0.000267215
0.000546912
0.000327115
0.000254961
0.000417852
0.000474826
0.000167568
0.000422997
0.000429086
0.000532969
0.00118202
0.000261689
0.000106578
0.000483746
0.000578192
0.000351414
0.000669855
9.45453e-05
8.88779e-05
0.000568296
0.000527209
2.08469e-05
0.000525168
0.000725717
0.00088841
0.00103612
0.000440487
0.000244903
0.000260191
7.23237e-05
0.000186187
0.000673548
0.000466787
0.000864168
0.000210592
0.000704951
0.000771328
0.000531036
0.000250043
0.000772594
0.000264613
0.000201483
0.000463936
0.000591514
0.0012636
0.00128511
0.000441262
0.000321714
0.000627099
0.000386108
0.000205353
2.94103e-05
0.000832849
0.000188823
0.000290569
0.000411976
0.000663286
0.00026664
0.000903644
0.000713315
0.000672443
0.000290353
0.000486978
0.000739037
0.00079379
0.00045781
0.000306771
0.000690294
0.000418478
0.000701765
0.000211296
0.000284803
0.000295034
3.06398e-05
0.000721079
0.000261075
0.000165845
5.42954e-05
0.000741301
0.000646907
0.000496271
0.00096062
0.000313752
0.000286025
0.000483288
0.000339165
0.000471368
0.000964073
0.000782316
0.000454187
0.000458714
0.000834212
0.000223216
0.000831023
0.000125821
0.000237551
0.000430139
1.01523e-05
9.53693e-05
0.000163566
0.000656672
0.000529724
0.000262623
0.000433166
0.000428388
0.000993971
0.000742108
0.000181865
0.000177909
0.000194434
0.000774871
0.00080367
0.000444556
0.000323315
0.000199805
0.000898219
0.000959173
0.000382915
0.000223793
0.00072406
9.20906e-05
0.00028761
0.000307359
0.000990551
0.000801501
0.000440212
0.000816266
0.0011679
0.000265524
0.000135177
0.000113295
0.000962395
0.00075029
0.000879248
0.000808092
0.000877967
0.000873279
0.00088763
0.000440878
0.00052639
0.00070527
0.000842738
0.000388731
0.000767356
0.000730624
0.000270258
0.000860092
0.000438626
0.000865251
0.000284709
0.000659344
0.000428496
0.000836554
0.000552607
0.000914461
0.00122795
0.000714235
0.00110076
0.00050757
0.000437869
0.000721471
0.000247801
0.000438978
0.000723211
0.000420742
0.00202747
0.000465407
0.000920796
0.00117447
0.0004553
0.000273614
0.000673681
0.000577728
0.000550634
0.000957218
0.000728893
0.000274796
0.000773531
0.000348404
0.000544632
0.000266502
0.00130645
0.000254323
0.000513467
0.000870539
0.000371808
0.000738802
0.000959952
0.000556849
0.000379385
0.000926118
0.00125254
0.00107188
0.000447511
0.000494941
0.000329872
0.00090531
0.000407903
0.000945306
0.000565809
0.000990656
0.00139576
0.000434346
0.000589531
0.000373185
0.000479222
0.000738902
0.00103793
0.00089704
0.000320025
0.000671934
0.000312349
0.000776095
0.000920482
0.00098614
0.000594461
0.000132967
0.000461158
0.000512522
0.000734903
0.000681664
0.000601378
0.000311612
0.000222544
0.000412121
0.000178931
0.000438298
0.000300129
0.000374774
0.000159738
0.000121586
0.000561136
0.000879344
0.00121624
0.000809883
0.00034932
0.000516259
0.000598224
0.000939183
0.00045582
0.000428506
0.000633723
0.000312426
0.000709714
0.000993628
0.000840728
0.000713948
0.000463892
0.000458218
0.000316797
0.000294701
0.000479655
0.000732746
0.000575948
0.000713673
0.00055939
0.000618162
0.00028978
0.000253959
0.000530355
0.000508415
0.000425553
0.000436865
0.000223355
4.34301e-05
0.000125373
0.000601408
0.000958119
0.000605018
0.000162921
0.00027662
0.000546494
0.000821468
0.000352408
0.000257867
0.00109705
0.000829261
0.000888111
0.0006255
0.00122211
0.000571836
0.00114546
0.000799805
0.0012994
0.00123394
0.000645004
0.000571853
0.000903104
0.000645727
0.000860012
0.000392855
0.000239702
0.000738099
0.000864825
0.000820796
0.000631761
0.000707641
0.000435237
0.000175933
0.000695915
0.000766184
0.00102422
0.000440071
0.000857718
0.000422743
0.000277577
0.000151439
0.000456157
0.00082743
0.000660243
0.000214607
2.57949e-05
0.000523429
0.000538143
0.0010507
0.00101622
0.000447651
0.000220526
0.000688374
0.000208344
0.00036157
0.000793985
0.000695453
0.000695007
0.000333959
0.000546256
0.000679748
0.00060204
0.000152548
0.000131161
0.000656513
0.000776442
0.000559411
0.000935721
0.000920672
0.000755314
0.000613743
0.000224326
0.000609551
0.00116285
0.000808707
0.000627642
0.000251143
0.00174945
0.00105581
0.00088346
0.000420445
0.000350711
0.000423554
0.000446922
0.00061762
0.000476862
0.000522689
0.000110882
0.000800231
0.00103872
0.000519448
0.000810428
0.00124016
0.0010933
0.000473593
0.000734387
0.000719739
0.000908884
0.000919063
0.000323382
0.000228641
0.000770753
0.000459405
0.000873881
0.000661838
0.00033132
0.000794882
0.000541551
0.000529382
0.000219481
0.000636272
0.000655463
0.000460773
0.000310852
0.000940226
0.000929198
0.000417542
0.000474483
0.000486815
0.000492814
0.000150237
0.000643818
0.000162127
0.000751987
0.000923696
0.00107131
0.000490011
0.000887587
0.0005655
0.00037618
0.00109535
0.000741882
0.00109485
0.000648184
0.000459101
0.000348191
0.000518858
0.000322053
0.000450936
0.00104617
0.00108757
0.00115496
0.00047719
0.000772175
0.00116493
0.00128953
0.00111971
0.000949016
0.000656774
0.000474297
0.000916166
0.000781515
0.00145161
0.000791094
0.000949277
0.000106472
0.000438187
0.000577243
0.000859205
0.000879748
0.000740664
0.000781057
0.000963462
0.000694165
0.000941225
0.000749491
0.000484087
0.000546425
0.00089643
0.000308629
0.000844688
0.000324864
0.000438782
0.000966311
0.000440464
0.000408745
0.000803011
0.000697368
0.00155064
0.00123212
0.000818386
0.000297015
0.000367403
0.000336678
0.000782339
0.00104937
0.001162
0.00151114
0.00119416
0.000253444
0.00129409
0.000911497
0.000821628
0.000472823
0.000659747
0.00036999
0.000110892
0.000123143
0.000378005
0.000354083
0.000456465
0.000823497
0.000491777
0.000739653
0.000204078
0.000213001
0.000189123
0.000515251
0.000182702
0.00029866
0.000762131
0.000721069
0.000951592
0.0012926
0.000813594
0.000918668
0.000559369
0.00107472
0.000929639
0.000509083
0.000727353
0.00107082
0.0010262
0.000753889
0.00106498
8.01441e-05
0.000959199
0.001008
0.00177895
0.000794942
0.00113729
0.000635283
0.0003037
0.000154004
0.000866827
0.000867946
0.000945669
0.00113725
0.000568353
0.000679038
0.000811029
0.000656834
0.000533383
0.000921602
0.00175012
0.00139842
0.00086592
0.000747715
0.000349663
0.000519392
0.000375808
0.000250772
0.00065295
0.000513732
0.000428992
0.00104986
0.00101054
0.000782106
0.000299473
0.000278703
0.000794901
0.000231364
0.000520536
0.000508204
0.000341768
0.000385843
0.000419144
0.000636862
0.000434354
0.000671043
0.00147126
0.00103553
0.000928155
0.000209095
0.00028943
0.000108101
0.000476835
0.000381541
0.000307344
0.000419501
0.000980645
0.000516614
0.000939148
0.000493832
0.000860184
0.00084707
0.000667075
0.000318809
0.00032023
0.00135757
0.00149893
0.00135122
0.000925947
0.000444956
0.00085919
0.00066834
0.000244544
0.000684764
0.000811399
0.000832282
0.000351208
0.000879042
0.000552633
0.000802032
0.000719304
0.000870706
0.00063833
0.000922819
0.000293543
0.000589566
0.000653009
0.000845317
0.000702427
0.000632233
0.000661459
0.000534643
0.000455005
5.97485e-05
0.00018456
0.00048038
0.000115627
0.000465306
0.000380283
0.000426534
0.000356985
0.000472285
0.000841588
0.0007549
0.00104214
0.000235237
0.000226631
0.000284917
0.00102086
0.00123296
0.000772161
0.000821291
0.000986537
0.000910108
0.000144922
0.000317256
0.000454328
0.000257631
0.000164041
0.000356765
0.000163156
0.000428481
0.000769622
0.000629177
0.00046374
0.000222372
0.000583088
0.000804686
0.000483457
0.000361126
0.000270053
0.000220201
0.000603026
0.000946114
0.000684049
0.000587075
0.000789692
0.00083983
0.000921337
0.000991212
0.000250753
0.00058455
0.000558649
0.000444521
0.000101968
0.00085268
0.000691602
0.00126165
0.00113047
0.000877866
0.000987319
5.62905e-05
0.000614281
0.000949727
0.000557644
0.00045804
0.00150947
0.00113311
0.000731109
0.000472373
0.000946109
0.000855338
0.000316736
0.000824671
0.000287599
0.000586841
0.00106486
0.000815699
0.000781967
0.000165106
0.000532116
0.000234869
0.000356793
0.000828526
0.00064194
0.000398309
0.00153148
0.00103306
0.000735811
0.000660032
0.00117854
0.000334328
0.000702797
0.000541268
0.000292062
0.00118333
0.00126942
0.00184202
0.000305074
0.000946148
0.00142118
0.000789219
0.00098472
3.64585e-05
0.000646199
0.000416932
0.0009959
0.000696099
0.000893466
0.000408472
0.000371304
0.000204135
0.000821445
0.000725487
0.000405756
0.000864741
0.000913065
0.000316847
0.000780768
0.000840279
0.000537981
0.000114082
0.000570174
0.00138041
0.000450617
0.000613556
0.00098488
0.000338965
0.000395252
0.000349019
0.000405784
0.000805916
0.00132414
0.00107791
0.00045045
0.000631602
0.000110962
0.000574139
0.000580859
0.000854869
0.0010885
1.36644e-05
0.0003261
0.000647493
0.000688583
0.000807663
0.00122458
0.000566431
0.000498158
0.000333131
0.000362868
0.000129889
0.000830222
0.000465693
0.000285099
0.00031664
0.000335894
0.000351821
0.000133607
0.00031121
0.000560945
0.000227994
0.000290115
0.000252896
0.00128731
0.000858183
0.00101177
0.000690854
0.00042684
0.000470548
0.000726378
0.00054353
0.000376637
0.000672779
0.000357146
0.00128561
0.000622634
0.00128212
0.000443576
0.000396398
0.000257505
0.000210876
0.000413856
0.00072003
0.000192659
0.000696549
0.00076444
0.000386947
0.000845293
0.000616769
0.000159839
0.000489541
0.000594324
0.000503921
0.000324872
0.000180093
6.23237e-05
7.65955e-05
0.000827749
0.00074351
0.00111045
0.000113104
0.00064248
0.000425156
7.52216e-05
0.000423089
0.000645021
0.00101741
0.00133432
0.00105028
0.000445507
0.000931159
0.000432671
0.00100142
0.000897427
0.000801457
0.00118951
0.000383778
0.000302968
0.00106622
0.000425218
0.000959245
0.000113767
0.000338949
0.000674152
0.000549192
0.00100671
0.000510933
0.00058511
0.000574568
0.000135164
0.00114582
0.00084552
0.00164671
0.000143138
0.000933082
0.000328586
0.000437005
6.52022e-05
0.000755653
0.000923305
0.00083477
0.000838255
0.00015701
4.10209e-05
0.00101417
0.000683286
0.00126891
0.000614546
0.000477082
0.000965578
0.000527623
0.000666613
0.000796778
0.00146136
0.000496153
0.000404377
0.000316325
0.0006886
0.000510539
0.000180133
0.000432894
0.000845297
0.000579917
0.000359323
0.000941931
0.0012308
0.000566453
0.000538909
0.000371471
0.00101347
0.000800642
0.00122103
0.00046194
0.000957224
0.00103079
0.00113763
0.000795288
9.1114e-05
0.000542574
0.000191322
0.000212654
0.00028291
0.000718293
0.000584201
0.000367714
0.000816748
0.00119846
0.000496894
0.000840604
0.0011385
0.00209804
0.000244008
0.000930265
0.000548909
0.000747627
0.00105657
0.000555102
0.00100849
0.000627475
0.000535864
0.000643775
0.000447863
0.0002518
0.000368101
0.000635065
0.000457186
0.000470952
1.10718e-05
0.000475001
0.000288202
0.00077742
0.000187943
0.00100437
0.000516164
0.000458169
1.50766e-05
0.000287516
9.9146e-05
0.000524918
0.000453504
0.000452133
0.00061663
0.00109689
0.000761159
0.000686584
0.000744466
0.000419433
0.00117028
0.00105786
0.000942939
0.000509587
0.000544673
0.000779774
0.000555387
0.000878157
0.000358546
0.00147968
0.000792571
0.00167158
0.000572354
0.000262628
0.00132811
0.000949106
0.000962404
0.00117281
0.000325958
0.000466183
0.00111265
0.000334637
0.00153316
0.000354166
0.000747381
0.000405982
0.000679164
0.000458262
0.00101735
0.00101021
0.000634733
0.000741565
0.00116442
0.000269832
0.000628008
0.000949511
0.000363509
0.000680945
0.000418951
0.000666602
0.000343347
0.000632122
3.27991e-05
0.0010048
0.000296996
0.000301698
0.000813869
0.000599143
0.0017112
0.00139936
0.00098826
0.000363314
0.000344504
0.00047296
0.000658867
0.000888296
0.00111434
0.00132243
0.00115264
0.000235428
0.00100014
0.00106437
0.000932198
0.000499744
0.000299023
0.000524088
0.000117785
0.000303798
0.000339684
0.000291447
0.000245744
0.000747463
0.000585052
0.000257412
0.000510309
0.00059853
0.000359583
0.000566234
0.000263468
0.000506728
0.00144199
0.000713321
0.000908379
0.00157134
0.000701858
0.000947762
0.000152922
0.00119109
0.000703262
0.00031627
0.000498635
0.00114489
0.000999701
0.000192574
0.00131744
0.000780229
0.00130203
5.94108e-05
0.00207191
0.00120002
0.000482406
0.00104488
0.000357216
0.000192454
0.00115729
0.000531272
0.000991191
0.00139795
0.000432125
0.000580176
0.000988995
0.000353516
0.000151698
0.000478467
0.0020061
0.000449986
0.0011371
0.00071564
0.000346001
0.000525071
0.000485039
0.000297375
0.000725998
0.000968078
9.62105e-05
0.00126841
0.000562053
0.00101718
8.18598e-05
0.00029581
0.000599157
2.09699e-05
0.000526201
0.00037905
0.000449913
0.000289936
0.000259959
0.000625404
0.000388305
0.000735557
0.00159957
0.00100128
0.0010672
0.000213615
0.000210496
0.000484384
0.000297648
0.000204402
0.000226122
0.000270664
0.000808355
0.000987788
0.000620827
0.00122031
0.0010554
0.00133746
0.00114707
0.000605917
0.000275386
0.00139883
0.0010792
0.000931514
0.00121386
0.00128239
0.000629793
0.00100355
0.000257286
0.00100306
0.000449724
0.00117014
0.000896935
0.000772406
0.00133004
0.000932532
0.00124454
0.000632332
0.00143487
0.000566516
8.12798e-05
0.000522671
0.000372051
0.000891767
0.000856028
0.000320345
0.000557121
0.00027346
0.000287241
0.000698185
0.000414282
0.000430356
0.000723996
0.000564754
0.000568508
0.00041643
0.000582218
0.00021651
0.0010836
0.00024479
0.00108185
0.00023957
0.000378889
0.000811007
0.00122541
0.000634331
0.00159592
0.0010217
0.00115762
0.000334499
0.000391392
0.000298814
0.000158557
0.000274665
0.000177223
0.000270163
0.000399938
0.000360995
0.000746204
0.000509276
0.000798739
0.000363761
0.000618872
0.00027992
0.000590285
0.000394729
0.000516333
0.00011314
0.000304718
0.00122093
0.000475511
0.00124931
0.00123843
0.000326422
0.000767917
0.000859697
0.000273595
0.000295147
0.000820122
0.000553135
0.000645927
0.00127319
0.000332692
0.00153987
0.00103537
0.00090096
0.00103829
0.000226026
0.000729534
0.000711087
0.000408761
0.000939381
0.00111099
0.00167194
0.000291768
0.00053912
0.000707162
0.00124054
0.000172625
0.000882364
0.000152387
0.00101424
0.000716185
0.00154749
0.000628909
0.000380801
0.000374519
0.00054938
0.000384313
0.00128023
0.000395541
0.000293154
0.00124171
0.00109575
0.000382536
0.000297498
0.00130725
0.000425646
0.00042875
0.000472114
0.0012996
0.00130126
0.0023036
0.00123545
0.00121114
0.00134685
0.00149853
0.00144247
0.000704132
0.000289898
0.000391677
0.000700698
0.000814548
0.000447009
0.000413022
0.000791235
0.000202499
0.00129808
0.000271991
0.000448239
0.000743173
0.000756689
0.000648047
0.00053389
0.000897392
0.000269547
0.000498893
0.00040161
0.000966601
0.00163703
0.000678532
0.000641447
0.00075284
0.000568817
0.000753527
0.000206123
0.000227203
0.000508814
0.0018109
0.000876643
0.000458335
0.000269516
0.000450912
0.000827027
0.000856742
0.00111443
0.00131227
8.62541e-05
0.000698295
0.000836687
0.000473595
0.000689093
0.00174865
0.000522458
0.000688747
0.000442403
0.000473874
0.000139311
0.000803598
0.000654055
0.000141999
0.000479001
0.000694154
0.000464003
0.000472726
0.000188012
0.000588124
0.000115083
0.000195255
0.000409849
0.00153632
0.00113088
0.000931589
0.000920566
0.000298911
0.00030046
0.000679002
0.000417402
0.000251711
0.000747604
0.000382321
0.0014749
0.000239096
0.00140615
0.000372228
0.000259269
0.000337489
0.000210769
0.000129022
0.000946157
0.00056953
0.000642528
0.000666196
0.000434295
0.00124875
0.000590086
0.000384434
0.000770762
0.000793905
0.000473992
0.000463927
0.000186057
0.000269671
0.000127309
0.00119125
0.000512054
0.00124686
0.000627124
0.000370951
0.000326216
0.000265021
0.000373466
0.00111148
0.000856791
0.00223383
0.000743657
0.000499589
0.000597953
0.000254824
0.000640133
0.000673085
0.000627622
0.00124679
0.000643659
0.000125607
0.00128152
0.000107848
0.00149111
0.000253793
0.000535086
0.000398554
0.00053604
0.000706126
0.000583644
0.000530794
0.000698689
0.000381088
0.0013024
0.000691554
0.00217505
0.000451592
0.00072451
0.000813149
0.000665735
0.000260903
0.00112791
0.000759948
0.000972942
0.000888962
0.000101279
0.000328372
0.00119923
0.00032689
0.00158265
0.000628039
0.000941922
0.00148526
0.00015757
0.000890835
0.00117111
0.00156734
0.000290813
0.000685089
0.000707034
0.000601043
0.000275117
0.000418927
0.000964637
0.000921076
0.000484978
0.000409275
0.00151442
0.00149898
0.000516489
0.000802623
0.000251592
0.00157671
0.000700559
0.00109461
0.000757489
0.00102839
0.000589986
0.00112671
0.000638598
0.000234823
0.000744748
0.000378004
0.00039267
0.000831146
0.000912423
0.000466503
0.000379315
0.000873895
0.00143381
0.000908344
0.00103635
0.000775592
0.00229797
0.00104865
0.000647695
0.000638394
0.000625264
0.00123689
0.000549767
0.00102285
0.000957504
0.000492617
0.000825592
0.000397021
0.000363175
0.000308908
0.00041286
0.000484116
0.000546668
0.000164717
0.000569983
0.000194503
0.000480443
0.000213379
0.000648566
0.000685108
0.000272582
0.000428444
0.000657403
0.000120134
0.00108278
0.000257489
0.000146951
0.000482706
0.00102378
0.0010633
0.00065111
0.00114803
0.000717217
0.000269804
0.00156265
0.000581959
0.000468143
0.000811512
0.00109954
0.00133361
0.000702601
0.000287254
0.00128417
0.00173064
0.00145177
0.000501378
0.000320172
0.00126887
0.000999398
0.000834053
0.00128774
0.000287728
0.000887653
0.00141228
0.000339002
0.00180324
0.000752348
0.000724364
0.000559697
0.000943808
0.000644783
0.000887587
0.0013451
0.000513956
0.000593272
0.000891627
0.00050447
0.00035836
0.000731696
0.000791934
0.00041505
0.000314561
0.000328929
6.26309e-05
0.000557489
0.00024393
0.000876782
0.00032407
0.000508192
0.000484127
0.000947227
0.00122438
0.00126914
0.00112072
0.000321216
0.000601331
0.000215649
0.000489031
0.000699082
0.00143802
0.00102371
0.00122122
0.000377702
0.000709511
0.00130947
0.000717417
0.000882495
0.00030904
0.000597925
0.000214414
0.000594551
0.000178495
0.000256136
0.000443994
0.000634981
0.000736679
0.000482628
0.000689691
0.000194949
0.000602646
0.000620804
0.000381895
0.000902846
0.00150984
0.000960534
0.00076355
0.00220221
0.000816533
0.00128364
0.000629176
0.00186879
0.000795369
0.000316823
0.000276094
0.00133997
0.000782452
0.000694631
0.000778319
0.00137345
0.00111073
0.000840394
0.00163678
0.00134942
0.000485913
0.000649874
0.000402144
0.000212102
0.00148491
0.00055409
0.00143095
0.00155655
0.00092602
0.000802916
0.00144643
0.000314392
0.000261159
0.000813398
0.00185668
0.00062256
0.00113945
0.000278001
0.000620002
0.000612648
0.000703802
0.00070887
0.000746556
0.00082172
0.000945201
0.00107727
0.000781845
0.000805573
0.000548915
0.000264047
0.000882839
0.000576702
0.000385079
0.000391369
0.000387857
7.85515e-05
0.000424372
0.000497444
0.000540928
0.00128708
0.00161488
0.00125324
0.00133024
0.000380526
0.00031575
0.00063868
0.000182627
0.000448254
0.0005045
0.000619226
0.000749358
0.00127912
7.44281e-05
0.00128244
0.00126163
0.00145156
0.00135355
0.000746783
0.000489633
0.00125984
0.00114161
0.000914548
0.00108454
0.00173107
0.000733839
0.00106713
0.000214418
0.00101893
0.000274849
0.0016536
0.00132978
0.00085581
0.00206291
0.000860008
0.00171359
0.000593137
0.00158714
0.00120233
0.000329785
0.000532899
0.000141236
0.00114898
0.00107563
0.000135327
0.00062187
0.000469259
0.000642561
0.000540123
0.000358078
0.000589037
0.000697742
0.000394076
0.00123894
0.00026651
0.000758306
0.000130106
0.00134679
0.000354536
0.00109039