/*--------------------------------*- C++ -*----------------------------------*\
| =========                 |                                                 |
| \\      /  F ield         | OpenFOAM: The Open Source CFD Toolbox           |
|  \\    /   O peration     | Version:  v2012                                 |
|   \\  /    A nd           | Website:  www.openfoam.com                      |
|    \\/     M anipulation  |                                                 |
\*---------------------------------------------------------------------------*/
FoamFile
{
    version     2.0;
    format      ascii;
    class       volScalarField;
    location    "150";
    object      he_filtered;
}
// * * * * * * * * * * * * * * * * * * * * * * * * * * * * * * * * * * * * * //

dimensions      [0 2 -2 0 0 0 0];


internalField   nonuniform List<scalar> 
65536
(
1157.52
1161.07
1165.28
1169.81
1175.91
1182.25
1184.4
1187.63
1190.59
1191.77
1191.59
1189.85
1186.76
1182.92
1185.06
1181.19
1182.19
1185.02
1187.88
1190.93
1191.18
1191.88
1189.55
1184.51
1180.58
1174.38
1170.13
1162.53
1156.49
1151
1147.18
1139.8
1134.2
1128.44
1128.12
1125.35
1125.67
1127.29
1130.46
1132.82
1135.92
1140.09
1141.79
1144.99
1144.99
1143.92
1144.49
1143.77
1145.2
1145.73
1147.27
1147.42
1146.26
1142.99
1140.44
1138.55
1132.7
1129.38
1124.25
1118.61
1110.64
1102.78
1096.36
1092.2
1085.53
1081.38
1080.21
1078.8
1077.76
1079.13
1080.7
1080.76
1079.05
1076.74
1074.35
1070.5
1066.63
1061.72
1057.39
1054.24
1051.57
1049.65
1052.56
1056.99
1062.41
1068.37
1076.23
1081.36
1085.32
1089.19
1091.45
1092.54
1093.55
1093.38
1091.8
1088.56
1085.5
1080.69
1076.4
1073.91
1070.14
1065.78
1064.13
1063.8
1064.32
1065.29
1068.16
1071.07
1073.81
1078.08
1082.92
1088.95
1092.67
1095.89
1096.98
1097.28
1097.11
1093.26
1090.03
1084.32
1082.1
1079.4
1078.55
1078.09
1080.06
1083.76
1087.44
1090.77
1093.18
1095.34
1097.96
1098.58
1098.34
1095.62
1092.08
1090.17
1086.29
1086.07
1085.53
1084.9
1082.05
1078.32
1074.73
1071.35
1067.41
1065.53
1065.29
1062.05
1058.37
1054.86
1052.29
1049.16
1052.81
1056.62
1062.78
1069.98
1075.73
1082.98
1089.58
1097.39
1102.73
1105.39
1106.82
1105.81
1103.22
1101.63
1097.94
1094.34
1089.71
1085.23
1080.48
1075.54
1070.41
1064.48
1059.39
1055.18
1052.42
1046.97
1045.83
1043.47
1043.42
1045.08
1046.42
1047.93
1051.06
1053.78
1056.5
1059.4
1063.47
1070.32
1072.96
1075.97
1078.76
1080.31
1081.68
1079.91
1078.9
1078.63
1080.31
1080
1082.92
1084.5
1084.33
1084.13
1086.01
1086.58
1086.78
1087.84
1088.48
1088.91
1089.56
1088.91
1088.12
1086.52
1086.99
1085.67
1085.16
1088.32
1090.47
1093.66
1094.51
1097.62
1100.37
1101.66
1104.15
1106.46
1108.21
1111.36
1115.01
1117.26
1118.01
1117.24
1114.07
1110.06
1104.67
1098.86
1093.73
1089.34
1086.5
1084.34
1086.22
1087.65
1091.32
1093.9
1098.66
1099.89
1100.94
1100.54
1102.22
1100.31
1099.06
1098.32
1096.16
1091.82
1088.03
1083.2
1078.6
1078.52
1077.56
1079.99
1086.57
1092.61
1099.57
1105.98
1109.93
1111.28
1111.33
1108.82
1105.51
1101.29
1097.04
1094.19
1092.87
1093.21
1094.01
1093.88
1093.11
1092.58
1092.18
1092.12
1091.14
1093.18
1095
1097.12
1099.67
1100.51
1101.15
1102.3
1104.66
1107.72
1112.82
1116.86
1119.52
1121.43
1122.09
1122.72
1123.63
1125.22
1123.8
1123.75
1122.78
1121.25
1119.42
1118.33
1120.13
1121.37
1121.08
1120.75
1118.45
1114.42
1110.96
1108.43
1104.1
1100.49
1097.43
1094.37
1091.8
1088.4
1086.21
1086.16
1086.25
1086.47
1086.21
1083.86
1082.48
1079.92
1079.43
1080.05
1080.91
1087.76
1093.39
1099.5
1107.34
1112.43
1114.62
1115.89
1116.4
1114.26
1110.39
1104.51
1099.74
1096.77
1092.49
1090.56
1089.83
1089.57
1087.57
1088.53
1088.99
1091.57
1094.63
1099.05
1102.06
1107.25
1111.03
1113.17
1115.63
1116.34
1117.9
1120.11
1121.64
1123.28
1126.09
1127.98
1129.51
1131.6
1131.52
1131.39
1129.63
1127.42
1126.22
1123.73
1121.41
1120.41
1117.45
1115.1
1112.76
1109.22
1107.23
1106.82
1105.63
1105.82
1108.01
1107.5
1108.38
1111.77
1116.04
1117.28
1120.42
1122.12
1121.09
1118.75
1115.77
1111.67
1109.09
1105.9
1103.85
1102.68
1101.83
1100.32
1098.74
1096.14
1093.55
1089.98
1088.23
1086.68
1086.52
1085.85
1089.36
1092.73
1097.35
1102.51
1104.63
1107.24
1107.38
1105.42
1104.71
1105.14
1104.28
1102.52
1100.92
1099.26
1101.16
1102.91
1105.27
1109.79
1112.44
1112.44
1109.72
1106.23
1099.83
1092.7
1085.09
1077.3
1071.86
1067.61
1064.82
1066.7
1069.55
1074.53
1081.51
1088.32
1094.71
1100.77
1104.97
1108.94
1111.02
1112.36
1112.65
1113.86
1115.83
1118.49
1120.26
1121.43
1121.89
1119.9
1118.63
1115.21
1111.54
1107.46
1107.19
1107.69
1106.96
1110.93
1111.43
1114.13
1116.88
1118.08
1118.57
1117.65
1116.43
1113.36
1108.86
1104.87
1103.11
1101
1102.03
1104.09
1104.07
1104.34
1101.77
1099.35
1100.79
1099
1099.16
1098.77
1096.13
1092.7
1089.12
1084.14
1077.37
1073.43
1068.01
1065.55
1065.79
1066.46
1069.28
1069.79
1069.41
1069.61
1068.3
1068.13
1070.39
1073.43
1076.51
1080.06
1081.17
1081.74
1082.05
1080.74
1078.68
1079.21
983.717
982.567
990.722
996.547
1002.19
1003.89
1014.91
1020.14
1022
1024.47
1026.9
1026.53
1019.25
1018.42
1004.27
1014.12
1019.54
1023.32
1029.73
1030.41
1034.89
1029.77
1026.35
1024.62
1020.09
1016.95
1007.72
1009.77
1004.07
996.472
985.015
987.249
982.89
981.254
967.179
974.406
979.997
985.312
986.76
990.976
992.847
993.111
1000.67
996.696
999.004
997.931
992.955
996.619
998.777
1003.17
1003.13
1004.66
1004.38
1005.4
994.689
983.196
987.119
983.11
980.89
975.337
972.728
965.141
952.121
935.934
939.231
937.18
930.043
933.075
940.458
939.499
937.239
937.718
939.082
939.231
933.507
932.664
925.173
920.231
911.105
901.745
900.637
906.445
905.068
906.281
916.486
926.687
932.644
943.085
947.537
942.718
941.152
947.197
952.517
953.274
951.756
945.803
936.298
936.014
936.534
931.421
927.694
927.879
919.848
914.181
918.725
927.049
927.137
924.487
926.381
934.702
944.212
945.672
952.182
954.09
953.22
954.791
949.258
950.28
942.084
942.268
936.259
936.183
933.286
937.249
936.347
938.937
943.335
947.824
951.348
954.468
952.774
956.455
953.319
953.357
947.288
937.874
943.281
943.307
943.361
941.293
939.952
936.157
928.624
927.404
930.394
927.991
920.252
919.832
916.638
907.763
899.399
905.156
900.144
911.856
919.213
923.204
930.434
934.893
947.313
953.094
962.3
967.664
967.75
964.931
962.397
953.49
952.27
949.759
946.988
942.427
938.87
933.652
928.765
926.792
922.093
912.542
899.314
901.394
894.179
901.85
906.492
905.466
904.321
903.11
901.218
907.06
914.814
919.369
921.027
915.163
929.167
936.302
937.773
934.897
928.36
933.643
937.212
938.941
933.68
940.252
936.142
936.536
942.705
945.139
940.766
939.85
942.637
943.126
945.611
946.427
948.097
950.273
945.549
942.582
932.789
938.113
947.578
945.388
948.712
947.425
956.848
956.426
956.716
962.748
962.988
962.519
967.957
974.137
975.049
978.582
979.956
976.717
971.888
963.418
957.774
956.887
951.983
942.661
933.044
934.11
931.881
943.667
947.919
956.692
953.461
957.674
958.612
962.07
955.147
959.744
959.288
955.412
953.622
954.216
945.924
938.474
934.159
922.737
929.126
933.011
933.626
945.81
958.534
965.058
970.519
973.595
970.766
970.458
967.208
961.501
955.974
949.041
950.594
951.32
950.969
953.663
954.14
951.73
947.274
945.68
950.079
947.296
951.894
955.917
954.218
954.799
951.805
949.318
956.394
966.13
967.306
972.541
978.447
980.709
981.959
983.771
981.646
974.369
981.843
981.834
982.643
979.83
979.879
981.694
975.769
975.965
979.192
977.295
975.635
974.835
966.94
956.281
957.079
957.832
955.095
953.484
947.076
946.336
943.584
945.061
945.66
945.964
943.324
945.411
936.329
932.073
923.644
922.815
934.103
934.685
949.166
963.761
965.451
970.905
975.858
976.253
974.472
972.929
967.495
962.433
959.18
951.835
953.206
950.125
946.178
942.841
947.368
946.35
952.715
951.873
950.341
948.36
959.716
964.34
969.272
972.961
973.12
976.057
979.711
980.118
983.509
986.442
986.035
989.802
994.208
992.053
994.03
988.791
985.181
983.319
977.746
979.6
980.713
977.865
978.938
973.025
965.897
965.532
960.032
958.835
958.974
958.675
952.239
961.173
967.089
965.919
963.337
976.781
978.497
981.29
981.786
976.896
967.675
967.889
964.817
967.482
965.834
962.981
959.781
960.824
958.562
957.111
952.957
950.279
947.072
945.169
941.539
946.988
946.1
952.607
960.098
960.859
969.434
967.555
966.45
968.628
966.248
963.821
965.309
964.406
960.158
957.822
947.734
952.41
966.064
970.666
974.665
976.462
977.945
968.318
960.809
948.138
936.548
935.805
930.54
924.421
921.038
918.018
922.395
932.84
937.792
943.31
949.862
955.672
964.231
967.55
970.886
974.05
976.12
975.705
972.074
974.447
978.199
981.065
982.411
985.243
979.152
974.954
966.69
962.563
961.026
960.637
966.773
958.235
968.878
969.926
972.176
975.9
976.893
976.604
975.182
972.924
968.576
960.842
951.663
957.785
960.164
957.527
961.888
958.3
960.069
960.201
947.523
955.491
956.307
955.019
956.456
955.528
950.97
941.092
934.953
919.533
919.407
920.745
921.048
926.136
923.582
927.305
928.138
922.954
921.97
920.345
923.253
931.721
936.349
936.078
941.328
944.387
941.298
939.635
935.284
923.187
617.16
638.219
641.825
660.937
659.944
678.218
678.07
689.661
698.112
705.913
701.353
697.59
701.794
685.597
690.152
687.726
697.174
710.424
715.964
727.125
725.389
730.851
728.146
718.71
709.084
706.646
709.775
696.719
700.18
696.925
689.364
681.475
683.048
672.258
677.383
676.376
681.667
686.508
691.039
692.073
703.052
709.607
702.664
708.277
703.337
706.873
708.285
707.777
708.789
713.409
717.731
717.757
718.923
708.832
711.519
703.336
698.162
700.248
697.917
687.805
667.134
653.611
649.609
648.065
642.875
644.704
645.573
645.674
641.477
652.312
660.086
658.95
656.085
648.764
649.281
634.458
635.879
629.603
627.931
622.692
614.091
606.753
612.8
619.629
621.749
630.678
644.767
649.693
653.753
661.773
658.083
663.666
667.145
671.55
664.177
662.572
658.635
651.335
646.747
644.291
644.348
631.493
633.222
632.89
632.649
629.103
634.139
637.428
634.861
643.228
654.216
668.217
667.729
665.062
671.2
666.721
667.688
662.042
661.205
645.792
638.246
635.49
639.878
632.608
640.255
650.763
658.199
658.746
663.649
663.731
674.995
674.593
678.777
666.728
659.953
653.387
646.324
655.119
664.637
662.462
655.229
649.964
646.485
636.157
623.886
624.874
633.62
635.582
631.033
625.829
614.319
597.627
607.418
612.094
629.069
641.126
640.82
638.343
654.289
676.367
679.17
677.405
670.829
671.232
669.336
671.287
662.896
655.877
654.961
652.486
644.472
642.097
636.864
624.842
616.956
614.361
608.642
600.355
602.757
606.294
609.478
618.117
622.262
621.215
618.636
622.619
623.022
621.334
621.158
628.306
633.056
646.979
652.979
654.019
651.819
650.763
647.186
640.069
646.97
638.677
650.74
656.227
648.745
647.194
653.124
657.938
652.503
652.425
648.664
659.279
660.437
658.461
662.347
652.108
647.824
647.138
644.884
658.766
662.772
666.593
658.394
664.946
672.929
667.518
667.188
670.336
668.005
669.813
687.451
694.85
695.435
694.577
691.528
687.606
678.521
666.316
656.866
649.646
641.007
644.066
654.705
655.478
665.441
662.497
671.84
672.295
669.736
661.19
669.436
665.152
665.52
672.329
671.209
661.15
660.52
656.494
644.355
637.612
632.629
640.158
650.825
665.068
675.529
689.267
695.495
695.914
695.492
689.456
680.572
674.853
662.117
655.341
658.367
665.632
673.148
668.215
665.425
662.93
662.269
654.935
652.003
664.71
663.067
666.306
676.696
673.564
668.593
665.145
670.293
675.988
691.301
695.613
694.639
694.416
693.135
689.069
688.141
696.23
692.317
699.17
695.158
693.342
683.723
677.062
690.01
695.022
694.571
695.46
692.014
678.448
674.779
674.369
676.604
675.389
672.863
665.22
664.925
656.762
654.974
648.859
655.693
660.823
661.795
647.989
653.909
645.699
643.905
642.04
637.56
648.638
660.408
665.342
681.954
684.587
685.75
688.632
690.596
685.566
678.254
669.702
655.525
654.432
647.158
652.188
656.008
657.329
650.874
654.487
647.231
654.301
657.31
658.265
668.941
683.101
688.11
686.939
683.967
682.94
683.798
689.621
688.523
687.118
694.002
696.218
694.314
704.619
703.586
706.427
700.654
690.291
694.56
690.387
684.017
682.702
674.313
676.143
672.94
663.774
664.591
659.027
666.187
666.865
676.193
672.035
669.501
672.061
675.436
682.202
701.624
702.344
698.949
692.718
693.763
686.132
683.65
674.438
675.45
677.045
679.576
676.832
677.642
675.087
669.985
664.338
660.404
659.237
660.549
654.205
661.741
667.723
668.477
678.733
673.407
680.356
680.947
671.002
672.067
675.853
672.516
675.075
677.562
667.157
664.22
672.479
677.925
691.532
695.918
694.32
683.446
687.733
678.808
668.529
654.355
647.252
644.024
638.858
631.852
629.027
637.734
637.688
650.039
662.555
668.727
674.188
674.747
680.436
686.805
682.316
678.998
675.8
683.846
687.298
695.387
697.489
693.732
689.79
694.246
685.99
672.655
651.654
663.053
671.78
664.24
675.44
672.377
687.055
693.331
693.571
692.99
691.065
688.392
683.694
676.217
667.758
662.017
658.096
664.294
677.474
676.045
679.732
671.371
658.188
669.08
660.932
664.681
670.115
667.325
664.588
657.885
656.067
639.219
631.106
630.062
627.19
632.048
628.553
640.059
639.182
638.11
639.9
629.618
620.463
636.612
640.091
646.932
654.008
655.158
656.983
665.849
660.727
651.217
648.348
143.017
146.273
173.491
179.805
204.62
194.213
215.279
219.548
231.513
234.573
251.236
240.838
224.709
223.464
190.159
232.69
256.941
276.799
286.055
286.546
291.863
281.039
279.353
290.622
290.469
284.791
277.976
292.7
288.275
275.899
240.435
278.992
278.853
268.82
225.722
272.617
297.467
309.091
308.654
303.978
303.004
307.774
326.571
316.64
318.477
308.315
295.042
315.385
327.192
324.871
329.285
338.94
335.853
338.773
309.24
268.191
302.082
308.299
306.653
305.063
297.759
279.827
260.324
217.031
260.701
260.087
228.9
253.97
268.021
275.022
277.933
278.947
279.374
279.566
268.578
265.846
260.122
254.397
236.541
210.731
214.481
214.604
206.705
201.038
225.909
236.497
259.301
280.842
286.276
263.66
232.491
272.721
290.819
288.278
291.433
265.857
241.46
260.35
269.693
268.273
258.935
259.839
241.18
210.483
244.175
263.799
264.858
250.094
220.007
259.306
278.981
281.464
288.961
289.585
283.644
278.756
280.14
276.63
255.517
246.607
250.895
248.687
237.793
237.11
227.053
252.511
276.297
288.281
280.976
286.094
280.002
288.358
282.483
284.374
260.676
220.437
239.681
264.572
270.318
281.552
284.325
263.416
237.703
242.782
241.289
245.503
246.229
248.482
247.643
223.957
188.911
205.6
180.425
229.159
249.786
253.774
250.177
213.951
268.732
285.534
303.638
308.805
309.14
298.287
285.55
271.609
270.014
273.79
272.579
269.549
271.27
260.892
250.14
243.538
247.118
229.456
184.503
212.138
179.261
222.529
233.231
244.025
242.495
224.823
197.981
222.31
232.955
226.067
227.502
196.611
253.745
272.212
278.732
262.516
221.637
251.832
264.19
264.206
251.35
256.83
255.088
257.92
268.568
260.05
262.775
266.532
275.995
267.848
278.572
273.686
278.296
286.912
276.459
263.085
214.979
247.034
258.341
270.072
276.786
274.019
280.038
285.847
284.318
294.5
292.376
283.377
270.262
294.281
305.672
318.998
325.122
319.071
309.612
289.117
273.825
285.281
282.966
258.259
212.335
243.483
229.171
268.229
277.869
284.82
280.091
284.375
283.533
285.57
275.26
282.102
284.663
283.999
285.828
288.99
279.206
260.446
237.798
200.222
237.586
241.705
220.768
266.169
300.29
313.622
318.924
320.754
319.135
314.689
310.485
299.461
284.908
244.608
273.878
289.923
282.934
286.907
284.04
282.08
273.581
274.03
272.829
266.655
280.237
289.106
283.403
284.313
267.465
228.999
269.897
292.6
294.111
302.499
312.061
309.64
298.469
310.22
304.282
279.299
308.208
314.298
317.321
307.207
300.658
297.734
294.272
299.559
310.914
313.625
307.931
307.17
288.105
248.064
275.369
292.344
293.96
286.327
274.983
264.517
241.666
266.206
282.257
281.98
277.642
282.527
261.012
252.3
216.034
206.468
233.911
220.574
268.883
299.108
305.528
311.588
312.861
307.48
307.278
307.323
292.19
267.877
271.131
265.083
260.692
263.268
267.668
257.522
254.381
260.949
277.877
279.161
271.849
232.724
283.539
300.761
307.122
304.548
296.873
290.535
303.134
304.915
305.492
310.358
315.3
320.927
330.008
325.721
327.898
319.479
308.589
300.376
292.154
296.647
298.433
301.992
302.941
289.778
278.388
271.394
247.265
270.743
274.699
275.266
250.816
272.535
277.057
282.245
246.867
301.742
310.733
323.271
320.101
305.712
271.031
284.522
287.5
295.025
294.082
299.168
298.05
299.733
301.631
299.94
283.765
256.83
270.373
274.719
264.809
263.37
266.209
277.249
294.384
295.091
300.411
303.138
296.361
287.245
269.524
287.32
306.467
309.022
296.445
278.666
228.006
258.654
302.143
319.454
329.762
327.988
326.441
315.258
309.235
283.531
236.106
265.215
267.672
249.865
227.734
231.856
239.216
260.19
263.148
264.423
275.628
283.158
299.749
308.576
304.289
304.853
298.372
291.125
267.539
291.446
301.244
316.188
323.763
314.501
315.58
313.019
286.904
224.283
274.272
281.989
280.021
253.393
287.195
295.134
298.979
307.199
302.358
296.119
310.254
313.687
302.435
274.541
233.81
268.604
281.257
285.11
296.755
289.903
288.955
280.727
250.077
282.687
292.395
287.962
291.967
288.319
286.435
271.891
253.932
197.46
222.245
232.893
236.383
244.733
247.299
258.83
259.977
248.087
235.154
190.429
233.544
264.485
272.961
269.831
274.686
283.941
278.935
278.713
264.562
212.66
-532.324
-467.993
-409.003
-411.571
-395.736
-384.755
-361.846
-358.452
-324.482
-318.745
-314.971
-305.106
-312.745
-337.4
-399.009
-320.083
-279.154
-267.438
-235.625
-223.506
-225.06
-218.048
-220.105
-239.095
-239.959
-229.841
-227.087
-235.894
-200.644
-189.125
-250.916
-205.276
-195.674
-233.296
-284.054
-208.186
-174.541
-165.337
-166.756
-194.12
-154.789
-142.075
-161.951
-167.652
-175.232
-153.223
-192.54
-146.634
-140.423
-128.221
-128.652
-120.163
-107.565
-125.993
-134.405
-204.595
-142.857
-123.665
-123.675
-146.639
-196.431
-230.324
-217.302
-253.52
-185.506
-169.8
-218.414
-184.464
-213.935
-173.843
-163.114
-167.517
-164.464
-170.834
-186.989
-221.637
-199.335
-212.368
-209.214
-267.357
-256.694
-274.041
-250.064
-289.31
-248.012
-261.762
-197.326
-175.6
-168.792
-165.36
-219.962
-160.894
-143.717
-139.916
-159.885
-174.248
-242.075
-208.238
-193.914
-199.176
-188.824
-218.375
-200.914
-248.653
-204.608
-209.423
-188.045
-186.789
-223.263
-179.563
-172.263
-170.836
-171.659
-185.211
-176.137
-172.92
-196.947
-187.75
-198.568
-249.006
-235.161
-217.987
-216.5
-249.739
-278.857
-203.213
-176.971
-166.854
-172.754
-202.206
-181.983
-166.741
-155.964
-165.314
-182.335
-259.057
-256.005
-188.711
-159.2
-160.499
-172.587
-185.112
-241.91
-222.658
-269.521
-249.155
-232.583
-199.481
-193.78
-209.146
-276.394
-272.381
-293.431
-242.221
-206.771
-196.894
-190.616
-231.209
-176.061
-145.278
-143.267
-155.733
-183.957
-172.847
-176.097
-196.065
-212.433
-221.727
-196.725
-187.404
-189.991
-185.705
-196.147
-249.212
-240.583
-218.896
-268.25
-230.001
-268.635
-220.961
-244.963
-196.776
-191.704
-205.363
-253.892
-211.596
-211.618
-261.263
-225.337
-273.922
-213.314
-172.994
-163.19
-173.249
-242.396
-196.728
-200.08
-226.807
-208.51
-243.537
-197.07
-190.344
-207.37
-245.84
-216.515
-192.761
-191.824
-188.927
-213.735
-189.716
-187.421
-178.129
-163.908
-183.211
-253.342
-224.666
-246.85
-186.991
-175.741
-193.456
-216.093
-181.081
-163.601
-176.854
-187.436
-194.801
-249.078
-201.261
-149.506
-128.67
-127.727
-141.012
-146.606
-160.185
-207.504
-177.28
-174.417
-186.977
-238.74
-197.417
-233.93
-173.255
-170.24
-189.04
-175.54
-169.217
-180.972
-218.015
-208.615
-196.449
-202.847
-169.299
-159.915
-176.522
-172.143
-179.591
-208.636
-277.663
-231.552
-211.108
-245.933
-176.067
-149.913
-124.586
-111.519
-115.706
-133.395
-136.895
-152.979
-141.66
-159.36
-195.321
-161.917
-163.665
-154.662
-158.068
-166.908
-171.976
-175.949
-200.038
-220.366
-191.328
-193.325
-171.789
-150.246
-158.637
-177.116
-239.558
-182.607
-160.793
-147.815
-135.693
-136.239
-145.191
-187.863
-156.27
-160.167
-208.115
-158.382
-129.907
-133.811
-152.402
-186.551
-214.481
-171.882
-160.171
-145.828
-140.496
-147.676
-183.194
-173.223
-216.642
-155.707
-147.558
-149.519
-153.721
-163.549
-185.116
-249.713
-196.05
-182.159
-164.847
-167.375
-201.302
-183.621
-203.247
-265.226
-273.77
-208.881
-237.786
-171.753
-171.906
-150.526
-157.045
-156.348
-170.503
-141.141
-142.013
-165.737
-224.046
-223.9
-214.116
-246.517
-201.771
-192.444
-200.787
-244.214
-211.905
-224.855
-183.325
-172.168
-217.591
-154.977
-128.619
-131.002
-154.877
-176.299
-210.217
-170.487
-155.184
-158.295
-178.154
-155.67
-145.157
-159.096
-127.612
-119.861
-123.568
-149.006
-198.819
-181.389
-166.903
-199.453
-175.977
-199.701
-181.73
-204.904
-207.293
-254.584
-209.386
-180.24
-187.02
-227.641
-185.009
-212.575
-173.867
-212.875
-148.306
-123.505
-114.942
-115.856
-142.065
-207.078
-166.829
-158.674
-160.659
-151.521
-152.291
-147.649
-144.355
-139.271
-145.754
-164
-239.069
-189.415
-177.659
-198.103
-231.981
-203.806
-178.921
-163.324
-152.423
-190.226
-144.652
-150.468
-206.988
-235.613
-169.676
-168.379
-149.594
-139.336
-160.127
-233.664
-212.256
-149.787
-112.256
-106.004
-117.825
-157.971
-127.714
-131.344
-147.531
-207.777
-159.845
-163.904
-189.206
-249.534
-245.515
-218.647
-207.189
-189.86
-183.88
-183.583
-179.939
-170.279
-160.815
-147.637
-155.77
-177.707
-189.816
-236.628
-169.47
-136.31
-128.819
-139.816
-181.173
-129.687
-129.331
-150.661
-207.038
-167.25
-166.496
-201.316
-240.286
-179.159
-153.486
-149.336
-146.694
-146.321
-188.67
-151.181
-145.952
-158.039
-181.039
-237.475
-194.092
-177.313
-165.616
-162.12
-158.923
-171.882
-219.857
-244.482
-190.809
-172.409
-160.536
-166.253
-167.371
-166.427
-166.265
-198.073
-266.903
-230.305
-254.034
-222.353
-244.507
-198.246
-198.377
-208.725
-205.862
-206.315
-250.934
-196.369
-186.682
-184.335
-185.095
-189.04
-169.274
-150.785
-151.01
-170.832
-249.743
-1317.61
-1174.11
-1131.57
-1072
-1087.58
-1097.43
-1088.61
-1026.05
-1040.93
-993.624
-993.995
-972.477
-1027.65
-951.726
-937.539
-905.726
-893.44
-854.373
-848.903
-844.26
-842.276
-883.744
-887.227
-823.12
-823.699
-802.27
-834.438
-831.083
-745.418
-717.916
-693.553
-693.077
-713.174
-783.829
-720.097
-698.569
-678.504
-660.581
-667.643
-716.801
-690.01
-703.065
-675.431
-737.198
-732.472
-657.452
-623.717
-634.688
-637.328
-673.34
-681.647
-634.428
-629.821
-634.732
-658.643
-621.55
-638.866
-657.657
-661.114
-656.689
-728.48
-749.324
-718.48
-644.776
-627.274
-613.456
-621.807
-655.873
-722.878
-670.112
-667.706
-697.793
-675.127
-672.216
-679.849
-731.325
-691.436
-730.596
-687.638
-695.281
-760.853
-778.641
-759.6
-751.903
-729.598
-764.72
-699.377
-665.511
-651.465
-671.068
-634.342
-636.663
-635.016
-661.039
-657.891
-695.756
-673.902
-723.041
-683.762
-726.723
-691.234
-729.22
-672.901
-645.433
-658.648
-712.192
-664.615
-664.641
-656.985
-657.124
-663.628
-707.817
-674.866
-721.28
-699.053
-715.519
-750.725
-691.958
-731.093
-750.886
-738.897
-726.642
-759.616
-797.294
-775.165
-701.847
-656.684
-654.777
-674.658
-742.675
-724.941
-676.237
-691.543
-657.9
-673.572
-672.128
-721.78
-670.104
-685.068
-659.258
-654.375
-671.854
-700.578
-709.735
-781.213
-789.085
-785.385
-711.752
-682.023
-706.284
-694.142
-735.457
-700.943
-732.807
-687.798
-721.292
-660.713
-640.976
-653.51
-662.095
-643.903
-660.22
-713.54
-687.581
-711.718
-760.859
-776.296
-774.784
-711.116
-716.744
-698.112
-710.04
-704.699
-744.151
-746.458
-680.665
-650.444
-653.241
-649.024
-674.981
-720.088
-667.223
-663.268
-696.503
-687.433
-717.68
-709.042
-734.855
-696.516
-666.656
-695.867
-661.624
-637.378
-651.642
-643.415
-694.091
-680.71
-746.454
-739.482
-773.016
-729.731
-734.686
-699.69
-759.976
-755.516
-711.791
-694.331
-724.54
-747.103
-704.8
-728.71
-675.673
-669.64
-651.994
-665.458
-733.428
-757.854
-691.929
-679.495
-738.32
-745.939
-690.075
-701.083
-689.811
-717.963
-700.499
-751.039
-733.808
-663.454
-625.976
-623.277
-670.129
-652.443
-683.784
-686.643
-658.045
-658.99
-684.432
-649.341
-636.538
-625.272
-638.405
-662.877
-729.856
-721.507
-686.152
-698.236
-774.917
-765.284
-697.581
-714.851
-675.374
-661.327
-692.313
-670.548
-695.406
-724.939
-698.696
-736.811
-682.898
-665.63
-683.183
-635.595
-619.789
-615.405
-622.058
-661.811
-641.53
-683.309
-632.614
-619.557
-636.123
-636.231
-644.696
-686.055
-671.65
-697.042
-674.782
-678.754
-705.499
-746.529
-693.659
-690.2
-656.451
-669.246
-650.02
-676.4
-656.203
-688.261
-672.671
-701.156
-672.95
-636.607
-630.495
-663.671
-628.184
-639.047
-672.572
-632.526
-620.506
-625.167
-663.861
-728.773
-762.535
-703.917
-708.75
-656.257
-643.492
-658.458
-723.797
-658.412
-639.152
-656.618
-637.281
-651.179
-665.554
-681.918
-679.8
-716.778
-703.593
-666.866
-665.938
-682.642
-739.306
-717.944
-670.299
-654.648
-650.696
-677.157
-642.479
-642.919
-680.227
-640.227
-677.097
-649.378
-664.622
-640.29
-630.598
-652.96
-712.393
-752.621
-726.709
-763.885
-726.969
-694.907
-732.936
-753.582
-726.208
-772.636
-685.133
-639.985
-611.306
-627.171
-617.692
-624.69
-675.925
-699.954
-714.152
-667.899
-676.826
-686.68
-700.141
-647.148
-652.746
-699.994
-653.228
-645.535
-637.957
-663.027
-739.765
-734.291
-672.413
-703.725
-664.996
-720.32
-673.065
-681.79
-679.139
-718.66
-716.326
-673.743
-656.024
-668.554
-655.515
-685.074
-618.762
-596.935
-612.48
-654.396
-616.569
-617.439
-635.209
-649.345
-664.501
-692.866
-695.838
-695.166
-673.547
-683.558
-664.586
-643.763
-627.442
-648.94
-714.277
-700.329
-674.037
-729.067
-751.157
-743.317
-715.966
-669.178
-655.526
-698.154
-635.951
-642.268
-699.927
-712.961
-669.165
-681.772
-633.472
-627.483
-635.165
-616.413
-628.574
-600.829
-592.047
-594.42
-619.367
-689.035
-626.052
-605.881
-621.862
-608.689
-622.866
-635.725
-667.296
-711.207
-714.697
-740.245
-705.363
-721.619
-737.212
-721.125
-729.923
-678.431
-662.604
-654.978
-664.31
-718.346
-683.396
-716.36
-671.859
-673.078
-632.694
-629.05
-682.772
-621.838
-606.997
-607.108
-598.299
-621.151
-649.992
-707.209
-673.688
-660.023
-665.564
-691.697
-649.118
-649.836
-672.17
-630.116
-622.019
-639.874
-679.168
-677.398
-683.948
-704.641
-705.512
-668.597
-690.726
-664.07
-719.681
-668.408
-657.129
-670.465
-688.999
-683.967
-702.362
-683.352
-670.609
-669.55
-676.745
-732.829
-759.534
-715.628
-749.566
-713.351
-686.957
-714.69
-719.666
-678.993
-663.936
-695.524
-676.181
-689.642
-729.684
-737.586
-672.402
-662.215
-633.048
-624.139
-609.202
-2038.62
-1908.85
-1887.06
-1852.03
-1904.3
-1937.92
-1865.88
-1844.12
-1792.69
-1792.19
-1727.74
-1752.03
-1808.27
-1671.14
-1605.82
-1611.27
-1579.5
-1573.42
-1552.58
-1523.37
-1525.28
-1607.85
-1603.97
-1477.45
-1425.66
-1393.09
-1432.83
-1348.19
-1314.29
-1263.81
-1245.18
-1249.78
-1262.16
-1330.99
-1252.69
-1240.76
-1226.27
-1232.37
-1226.07
-1216.52
-1219.31
-1283.62
-1259.08
-1281.26
-1234.88
-1172.29
-1146.19
-1159.06
-1197.94
-1256.68
-1245.23
-1184.71
-1164.36
-1230.42
-1234.25
-1149.37
-1144.47
-1201.36
-1203.01
-1151.21
-1177.29
-1156.15
-1172.45
-1115.7
-1103.25
-1088.46
-1080.93
-1118.36
-1206.04
-1171.75
-1179.13
-1235.15
-1203.83
-1218.73
-1208.23
-1181.53
-1179.76
-1206.17
-1164.57
-1161.43
-1231.16
-1225.29
-1256.35
-1212.92
-1210
-1253.41
-1209.92
-1225.44
-1217.23
-1228
-1149.39
-1139.31
-1153.77
-1219.57
-1194.65
-1246.02
-1180.7
-1228.16
-1200.02
-1215.01
-1169.15
-1195.21
-1151.7
-1139.34
-1176.22
-1163.3
-1194.28
-1200.23
-1156.67
-1159.61
-1214.34
-1245.43
-1199.81
-1222.02
-1233.6
-1259.58
-1257.22
-1207.12
-1252.77
-1231.98
-1228.43
-1224.95
-1288.82
-1297.45
-1221.94
-1212.79
-1167.12
-1166.58
-1192.63
-1228.55
-1245.94
-1208.47
-1240.7
-1208.17
-1201.36
-1143.78
-1138.25
-1196.03
-1236.19
-1213.38
-1206.46
-1181.25
-1180.59
-1172.2
-1179.49
-1218.65
-1277.21
-1243.99
-1194.29
-1209.64
-1133.46
-1127.44
-1145.05
-1200.96
-1202.38
-1229.34
-1164.76
-1152.29
-1209.14
-1226.93
-1178.4
-1210.03
-1196.85
-1200.8
-1253.71
-1290.01
-1289.06
-1262.83
-1223.47
-1254.28
-1230.68
-1243.38
-1183.53
-1159.21
-1144.04
-1173.89
-1126.3
-1162.34
-1123.98
-1176.73
-1133.79
-1151.07
-1171.75
-1199.99
-1162.42
-1222.44
-1220.25
-1153.59
-1150.7
-1128.15
-1163.82
-1188.33
-1152.01
-1169.45
-1134.86
-1201.66
-1195.13
-1191.86
-1248.31
-1206.86
-1241.91
-1271.68
-1226.58
-1196.48
-1244.01
-1248.92
-1223.67
-1257.86
-1230.75
-1220.24
-1267.48
-1234.52
-1211.93
-1151.15
-1125.46
-1192.88
-1147.97
-1197.74
-1182.81
-1239.89
-1230.62
-1213.08
-1257.07
-1244.69
-1240.01
-1207.38
-1177.37
-1178.3
-1193.84
-1145.45
-1141.83
-1188.27
-1191.54
-1236.77
-1197.25
-1180.55
-1204.78
-1211.56
-1135.25
-1120.29
-1102.81
-1133.06
-1188.71
-1247.85
-1254.91
-1204.75
-1218.71
-1279.22
-1281.23
-1215.01
-1184.35
-1195.89
-1157.59
-1164.18
-1189.08
-1230.31
-1255.34
-1187.26
-1239.91
-1186.07
-1175.49
-1228.55
-1200.15
-1169.49
-1137
-1137.38
-1178.31
-1157.99
-1190.52
-1141.43
-1139.32
-1119.27
-1146.56
-1205.21
-1238.34
-1199.55
-1235.72
-1218.2
-1174.28
-1196.18
-1233.79
-1177.76
-1172.61
-1179.25
-1214.7
-1179.73
-1210.68
-1175.02
-1214.06
-1194.61
-1255.47
-1235.92
-1178.69
-1144.5
-1133.55
-1146.33
-1149.32
-1197.49
-1180.99
-1139.99
-1156.84
-1203.49
-1229.18
-1219.82
-1227.09
-1253.77
-1202.89
-1198.68
-1190.59
-1231.87
-1157.48
-1137.42
-1193.3
-1158.31
-1179.25
-1179.91
-1202.35
-1165.46
-1166.09
-1208.94
-1204.83
-1188.22
-1193.28
-1201.89
-1247.23
-1193.67
-1137.15
-1125.06
-1190.45
-1117.58
-1116.26
-1124.88
-1144.24
-1174.56
-1168.11
-1173.68
-1151.69
-1154.44
-1165.22
-1215.13
-1238.38
-1239.84
-1194.37
-1220.89
-1213.26
-1239.27
-1204.35
-1235.24
-1275.5
-1220.75
-1131.31
-1096.18
-1114.86
-1109.33
-1117.17
-1140.86
-1178.22
-1173.62
-1210.01
-1256.96
-1256.36
-1193.14
-1179.12
-1180.28
-1212.11
-1169.63
-1207.73
-1160.78
-1187.36
-1248.88
-1245.97
-1156.62
-1133.4
-1170.05
-1140.12
-1184.65
-1186.42
-1176.97
-1167.96
-1197.51
-1159.75
-1154.41
-1143.58
-1131.82
-1102.76
-1113.31
-1101.91
-1149.17
-1209.23
-1164.68
-1132.4
-1133.83
-1170.1
-1178.83
-1224.08
-1211.17
-1246.07
-1207.62
-1245.47
-1208.86
-1161.18
-1150
-1131.85
-1117.34
-1172.21
-1152.14
-1210.73
-1188.18
-1233.23
-1238.72
-1223.56
-1163.54
-1111.14
-1115.61
-1121.17
-1137.26
-1125.99
-1135.97
-1159.89
-1171.56
-1141.97
-1159.67
-1099.24
-1106.66
-1116.66
-1091.63
-1098.11
-1129.6
-1193.02
-1140.61
-1134.51
-1153.62
-1101.34
-1106.1
-1128.06
-1168.95
-1177.01