/*--------------------------------*- C++ -*----------------------------------*\
| =========                 |                                                 |
| \\      /  F ield         | OpenFOAM: The Open Source CFD Toolbox           |
|  \\    /   O peration     | Version:  v2012                                 |
|   \\  /    A nd           | Website:  www.openfoam.com                      |
|    \\/     M anipulation  |                                                 |
\*---------------------------------------------------------------------------*/
FoamFile
{
    version     2.0;
    format      ascii;
    class       volScalarField;
    location    "150";
    object      p;
}
// * * * * * * * * * * * * * * * * * * * * * * * * * * * * * * * * * * * * * //

dimensions      [1 -1 -2 0 0 0 0];


internalField   nonuniform List<scalar> 
65536
(
158319
158315
158313
158308
158304
158298
158292
158284
158275
158266
158256
158245
158233
158220
158206
158191
158176
158160
158143
158126
158108
158089
158070
158051
158032
158012
157993
157974
157955
157937
157919
157902
157886
157870
157855
157840
157826
157812
157798
157785
157773
157761
157749
157738
157728
157718
157708
157699
157690
157681
157673
157665
157657
157649
157642
157635
157628
157621
157615
157609
157603
157597
157592
157586
157581
157577
157572
157568
157563
157559
157555
157551
157547
157544
157540
157537
157534
157531
157529
157526
157523
157521
157518
157516
157514
157512
157509
157507
157505
157503
157500
157498
157495
157493
157490
157488
157486
157483
157481
157479
157477
157475
157473
157471
157470
157469
157468
157466
157465
157464
157463
157461
157460
157458
157457
157455
157453
157452
157450
157448
157447
157445
157443
157442
157440
157439
157438
157436
157435
157434
157433
157432
157431
157430
157429
157427
157426
157425
157424
157423
157422
157420
157419
157418
157417
157417
157416
157415
157415
157414
157414
157414
157413
157413
157412
157411
157411
157410
157409
157408
157407
157406
157405
157404
157404
157403
157402
157401
157401
157400
157399
157399
157398
157397
157397
157396
157396
157396
157395
157395
157395
157395
157395
157396
157396
157396
157396
157396
157396
157395
157395
157395
157395
157394
157394
157394
157394
157393
157393
157393
157393
157393
157393
157393
157393
157393
157394
157394
157394
157394
157395
157395
157396
157396
157396
157397
157397
157397
157397
157397
157398
157398
157398
157398
157398
157398
157398
157397
157397
157397
157397
157396
157396
157396
157396
157396
157397
157397
157397
157397
157397
157398
157398
157398
157399
157399
157399
157400
157400
157401
157401
157401
157401
157402
157402
157402
157403
157403
157403
157403
157404
157404
157404
157404
157404
157404
157404
157404
157404
157404
157404
157404
157404
157404
157404
157404
157405
157405
157406
157406
157407
157407
157408
157408
157409
157409
157410
157410
157410
157411
157411
157412
157412
157413
157414
157414
157415
157415
157415
157416
157416
157416
157416
157417
157417
157417
157417
157417
157417
157417
157417
157417
157417
157417
157417
157417
157418
157418
157418
157418
157419
157419
157419
157419
157420
157420
157420
157420
157421
157421
157422
157422
157422
157423
157423
157423
157423
157424
157424
157424
157424
157424
157424
157424
157424
157424
157425
157425
157425
157426
157426
157426
157426
157426
157427
157427
157427
157427
157427
157427
157427
157427
157427
157427
157427
157427
157427
157427
157427
157428
157428
157428
157428
157429
157429
157430
157430
157430
157430
157431
157431
157431
157431
157431
157431
157431
157431
157431
157430
157430
157430
157430
157430
157430
157430
157430
157430
157430
157430
157430
157430
157430
157429
157429
157429
157429
157428
157428
157428
157428
157427
157427
157427
157427
157427
157427
157427
157428
157428
157428
157428
157428
157428
157428
157427
157427
157427
157427
157426
157426
157426
157426
157426
157426
157426
157426
157427
157427
157427
157427
157427
157427
157427
157427
157428
157428
157428
157428
157428
157428
157428
157427
157427
157427
157427
157427
157427
157428
157428
157428
157429
157429
157429
157429
157430
157430
157430
157430
157430
157431
157431
157431
157431
157430
157430
157430
157430
157430
157429
157429
157429
157429
157429
157428
157428
157428
157428
157428
157427
157427
157427
157427
157427
157427
157427
157427
157427
157427
157427
157427
157427
157427
157427
157427
157426
157426
157426
157426
157426
157425
157425
157425
157417
157415
157413
157409
157404
157399
157392
157384
157376
157366
157356
157345
157332
157320
157306
157291
157276
157260
157244
157227
157209
157190
157172
157153
157133
157114
157095
157076
157057
157039
157022
157005
156988
156973
156957
156943
156929
156915
156901
156889
156876
156864
156853
156842
156831
156821
156812
156803
156794
156785
156777
156769
156761
156753
156746
156739
156732
156725
156719
156713
156707
156701
156696
156691
156686
156681
156676
156672
156668
156663
156660
156656
156652
156648
156645
156642
156639
156636
156633
156630
156628
156625
156623
156621
156619
156616
156614
156612
156610
156607
156605
156603
156600
156598
156595
156593
156591
156588
156586
156584
156582
156580
156578
156577
156575
156574
156573
156571
156570
156569
156568
156566
156565
156563
156562
156560
156558
156557
156555
156553
156552
156550
156548
156547
156545
156544
156543
156542
156540
156540
156539
156537
156536
156535
156534
156533
156531
156530
156529
156528
156527
156526
156525
156524
156523
156522
156521
156521
156520
156520
156519
156519
156518
156518
156517
156517
156516
156515
156514
156513
156513
156512
156511
156510
156509
156509
156508
156507
156506
156506
156505
156504
156503
156503
156502
156502
156501
156501
156501
156501
156501
156501
156501
156501
156501
156501
156501
156501
156501
156501
156501
156500
156500
156500
156500
156499
156499
156499
156499
156499
156499
156499
156499
156499
156499
156499
156499
156499
156500
156500
156500
156501
156501
156502
156502
156502
156502
156503
156503
156503
156503
156503
156503
156503
156504
156503
156503
156503
156503
156502
156502
156502
156502
156502
156502
156502
156502
156502
156503
156503
156503
156503
156504
156504
156504
156505
156505
156506
156506
156506
156506
156507
156507
156507
156507
156508
156508
156508
156509
156509
156509
156509
156509
156509
156510
156510
156510
156510
156510
156510
156510
156510
156509
156510
156510
156510
156510
156511
156511
156512
156512
156513
156513
156514
156514
156515
156515
156515
156516
156516
156517
156517
156518
156519
156519
156520
156520
156521
156521
156521
156521
156522
156522
156522
156522
156522
156522
156522
156522
156523
156523
156523
156523
156523
156523
156523
156523
156523
156523
156524
156524
156524
156525
156525
156525
156525
156526
156526
156526
156527
156527
156528
156528
156528
156529
156529
156529
156529
156529
156529
156529
156529
156529
156529
156530
156530
156530
156531
156531
156531
156531
156532
156532
156532
156532
156532
156532
156532
156533
156533
156533
156533
156533
156533
156533
156533
156533
156533
156533
156533
156533
156534
156534
156534
156535
156535
156535
156536
156536
156536
156536
156536
156536
156536
156536
156536
156536
156536
156536
156536
156536
156536
156536
156536
156536
156536
156536
156536
156535
156535
156535
156535
156535
156534
156534
156534
156534
156533
156533
156533
156533
156533
156533
156533
156533
156533
156533
156533
156533
156533
156533
156533
156533
156533
156533
156533
156532
156532
156532
156532
156532
156531
156531
156531
156532
156532
156532
156532
156532
156533
156533
156533
156533
156533
156533
156533
156533
156533
156533
156533
156533
156533
156533
156533
156533
156533
156533
156533
156534
156534
156534
156534
156535
156535
156535
156535
156535
156536
156536
156536
156536
156536
156536
156536
156536
156535
156535
156535
156535
156535
156535
156534
156534
156534
156534
156533
156533
156533
156533
156533
156533
156533
156533
156533
156532
156532
156532
156532
156533
156533
156532
156532
156532
156532
156532
156532
156531
156531
156531
156531
156531
156531
156522
156521
156517
156515
156508
156503
156496
156489
156480
156470
156460
156449
156437
156424
156410
156395
156380
156364
156348
156331
156313
156295
156276
156257
156238
156219
156200
156181
156163
156145
156128
156111
156095
156079
156064
156050
156035
156022
156009
155996
155984
155972
155961
155950
155939
155929
155919
155910
155901
155893
155885
155877
155869
155861
155854
155847
155841
155834
155828
155821
155815
155810
155804
155799
155794
155789
155785
155780
155776
155772
155768
155764
155761
155757
155754
155751
155748
155745
155742
155739
155736
155734
155732
155730
155727
155725
155723
155721
155719
155716
155714
155712
155709
155707
155705
155702
155700
155698
155695
155693
155691
155689
155688
155686
155684
155683
155682
155681
155680
155678
155677
155676
155674
155673
155671
155670
155667
155666
155664
155663
155661
155660
155658
155657
155655
155654
155652
155651
155650
155649
155648
155647
155646
155645
155644
155643
155641
155640
155639
155638
155637
155636
155635
155634
155633
155632
155631
155630
155630
155629
155629
155628
155628
155627
155627
155626
155625
155625
155624
155623
155622
155622
155621
155620
155620
155618
155618
155617
155616
155616
155615
155614
155614
155613
155613
155612
155612
155612
155611
155611
155611
155611
155611
155611
155611
155611
155611
155611
155612
155611
155611
155611
155610
155610
155609
155609
155609
155609
155609
155609
155609
155609
155609
155609
155609
155609
155609
155610
155610
155610
155610
155611
155611
155611
155612
155612
155612
155612
155613
155613
155613
155613
155614
155614
155614
155614
155614
155613
155613
155613
155612
155612
155612
155612
155612
155612
155612
155613
155613
155613
155613
155613
155613
155614
155614
155615
155615
155615
155615
155616
155616
155616
155616
155617
155617
155617
155618
155618
155618
155619
155619
155619
155619
155619
155620
155620
155620
155620
155620
155620
155620
155620
155620
155619
155620
155620
155620
155621
155621
155621
155622
155622
155623
155623
155624
155624
155625
155625
155626
155626
155626
155627
155628
155628
155629
155629
155630
155630
155630
155631
155631
155631
155631
155632
155632
155632
155632
155632
155632
155632
155632
155632
155632
155632
155632
155633
155633
155633
155633
155634
155634
155634
155634
155635
155635
155635
155635
155636
155637
155637
155637
155638
155638
155638
155639
155639
155639
155639
155639
155639
155639
155639
155639
155639
155639
155640
155640
155640
155641
155641
155641
155642
155642
155642
155642
155642
155643
155643
155643
155643
155643
155643
155643
155643
155643
155643
155643
155643
155643
155643
155643
155643
155644
155644
155644
155645
155645
155645
155646
155646
155646
155646
155646
155646
155646
155646
155646
155646
155645
155645
155645
155645
155645
155645
155645
155645
155645
155645
155645
155645
155645
155644
155644
155644
155644
155643
155643
155643
155643
155643
155643
155643
155643
155643
155643
155643
155643
155643
155644
155644
155644
155644
155643
155643
155643
155643
155643
155642
155642
155642
155642
155642
155642
155642
155642
155642
155642
155642
155642
155642
155643
155643
155643
155643
155643
155643
155643
155643
155643
155643
155643
155643
155643
155643
155643
155643
155643
155643
155643
155644
155644
155644
155644
155645
155645
155645
155645
155645
155645
155646
155646
155646
155646
155646
155645
155645
155645
155645
155645
155644
155644
155644
155644
155644
155644
155644
155643
155643
155643
155643
155643
155643
155643
155642
155642
155642
155642
155642
155642
155642
155642
155642
155642
155642
155642
155642
155642
155641
155641
155641
155641
155641
155630
155629
155627
155623
155619
155612
155606
155597
155589
155578
155569
155555
155544
155531
155517
155502
155488
155473
155456
155439
155421
155403
155384
155366
155347
155328
155309
155290
155272
155254
155237
155221
155205
155189
155174
155160
155146
155133
155120
155107
155095
155083
155072
155061
155051
155041
155031
155022
155013
155005
154997
154988
154981
154973
154966
154959
154952
154946
154939
154933
154927
154921
154916
154911
154905
154901
154897
154892
154888
154884
154881
154877
154873
154870
154867
154863
154860
154857
154854
154852
154849
154847
154844
154843
154840
154838
154836
154834
154832
154830
154827
154825
154822
154820
154818
154815
154813
154811
154809
154807
154805
154803
154801
154799
154798
154797
154795
154794
154793
154792
154791
154790
154788
154786
154785
154782
154781
154779
154778
154776
154775
154773
154772
154770
154769
154768
154766
154765
154764
154763
154762
154761
154760
154759
154757
154756
154755
154754
154753
154752
154751
154749
154749
154747
154746
154745
154745
154744
154744
154743
154743
154742
154741
154741
154740
154740
154739
154739
154738
154737
154736
154736
154735
154734
154733
154733
154732
154731
154730
154730
154729
154728
154728
154727
154727
154726
154726
154725
154725
154725
154725
154725
154725
154725
154725
154725
154725
154725
154725
154725
154725
154725
154724
154724
154724
154724
154724
154723
154723
154723
154723
154723
154723
154723
154724
154724
154723
154723
154724
154724
154724
154725
154725
154725
154726
154726
154726
154726
154727
154727
154728
154727
154728
154728
154728
154728
154727
154727
154727
154727
154727
154727
154727
154727
154727
154727
154726
154727
154727
154727
154727
154727
154728
154728
154729
154729
154729
154729
154730
154730
154730
154730
154730
154731
154731
154731
154731
154732
154732
154733
154733
154733
154733
154734
154734
154734
154734
154734
154734
154734
154734
154734
154733
154734
154734
154734
154734
154735
154735
154736
154736
154737
154737
154737
154738
154738
154739
154739
154740
154740
154740
154741
154742
154742
154743
154743
154744
154744
154745
154745
154745
154745
154745
154745
154745
154746
154746
154746
154746
154746
154746
154746
154746
154746
154746
154746
154747
154747
154747
154746
154747
154748
154748
154748
154748
154749
154749
154750
154750
154751
154751
154751
154752
154752
154753
154753
154753
154753
154753
154754
154753
154753
154753
154753
154754
154754
154754
154755
154755
154755
154755
154756
154756
154756
154756
154757
154757
154757
154757
154757
154757
154757
154757
154757
154757
154757
154757
154757
154757
154757
154757
154758
154758
154758
154758
154758
154759
154759
154759
154759
154759
154759
154760
154760
154759
154759
154759
154759
154759
154759
154759
154759
154759
154759
154759
154759
154758
154759
154758
154758
154758
154758
154758
154758
154758
154757
154757
154757
154757
154757
154757
154757
154757
154757
154757
154758
154758
154758
154758
154758
154758
154758
154758
154758
154757
154757
154757
154756
154756
154756
154756
154756
154756
154756
154756
154756
154756
154756
154756
154756
154756
154757
154757
154757
154757
154757
154757
154757
154757
154757
154757
154757
154757
154757
154757
154757
154757
154757
154758
154758
154758
154758
154759
154759
154759
154759
154759
154759
154759
154760
154760
154760
154760
154759
154759
154759
154759
154759
154758
154758
154758
154758
154758
154758
154757
154757
154757
154757
154757
154757
154756
154757
154756
154756
154756
154756
154756
154756
154756
154756
154756
154756
154756
154756
154755
154756
154756
154755
154755
154755
154755
154755
154743
154741
154743
154734
154732
154725
154719
154706
154700
154689
154678
154667
154654
154641
154628
154614
154599
154582
154567
154549
154530
154513
154495
154477
154459
154441
154422
154403
154385
154368
154350
154334
154318
154303
154288
154273
154260
154247
154234
154221
154209
154197
154187
154176
154166
154156
154146
154137
154128
154120
154112
154104
154096
154089
154082
154075
154068
154061
154055
154049
154043
154037
154032
154026
154021
154016
154012
154008
154004
154000
153997
153993
153989
153986
153982
153980
153977
153973
153971
153968
153965
153963
153961
153959
153957
153955
153953
153951
153948
153946
153944
153942
153939
153937
153935
153932
153930
153928
153926
153924
153922
153920
153918
153917
153915
153914
153913
153911
153910
153909
153908
153906
153905
153903
153901
153900
153898
153896
153895
153894
153892
153890
153889
153887
153886
153885
153884
153883
153881
153880
153880
153878
153877
153875
153874
153873
153872
153871
153870
153869
153868
153867
153867
153865
153864
153863
153863
153862
153861
153860
153860
153859
153858
153858
153857
153857
153856
153856
153855
153855
153854
153854
153854
153853
153852
153850
153850
153850
153849
153848
153847
153846
153846
153846
153845
153845
153844
153844
153844
153843
153843
153843
153843
153843
153843
153843
153843
153843
153843
153843
153843
153843
153842
153842
153841
153841
153841
153841
153841
153841
153841
153841
153841
153842
153842
153842
153842
153841
153842
153842
153842
153843
153843
153843
153843
153844
153844
153844
153844
153845
153845
153845
153846
153846
153846
153846
153846
153845
153845
153845
153845
153845
153845
153845
153845
153845
153845
153845
153845
153845
153845
153846
153846
153846
153846
153847
153847
153847
153847
153848
153847
153848
153848
153848
153848
153849
153849
153849
153850
153850
153850
153851
153851
153851
153851
153852
153852
153852
153852
153852
153852
153851
153851
153851
153852
153852
153852
153853
153853
153854
153853
153854
153854
153855
153855
153855
153856
153857
153857
153858
153858
153859
153859
153860
153860
153861
153861
153862
153862
153862
153862
153862
153863
153863
153863
153863
153863
153864
153864
153864
153864
153864
153864
153864
153864
153864
153864
153864
153865
153865
153865
153866
153866
153866
153866
153866
153867
153868
153868
153868
153869
153869
153869
153870
153871
153871
153871
153871
153871
153872
153871
153871
153871
153871
153871
153871
153872
153872
153873
153873
153873
153874
153874
153874
153874
153874
153875
153875
153875
153875
153875
153875
153875
153875
153875
153875
153875
153875
153875
153875
153875
153875
153875
153876
153875
153876
153876
153877
153877
153877
153877
153877
153877
153877
153877
153877
153877
153877
153876
153876
153877
153877
153876
153876
153876
153876
153876
153876
153876
153876
153876
153875
153875
153875
153875
153875
153875
153875
153875
153875
153875
153874
153875
153875
153875
153876
153876
153876
153876
153876
153876
153876
153876
153876
153876
153876
153875
153875
153875
153874
153874
153874
153874
153874
153874
153874
153874
153874
153874
153874
153875
153874
153875
153875
153875
153875
153875
153875
153875
153875
153875
153875
153874
153875
153875
153875
153875
153875
153875
153876
153876
153876
153876
153876
153876
153876
153876
153876
153877
153877
153877
153877
153877
153877
153877
153877
153877
153876
153876
153876
153876
153876
153876
153876
153876
153875
153875
153875
153875
153875
153874
153874
153874
153874
153874
153874
153874
153874
153874
153874
153874
153873
153873
153873
153873
153874
153873
153873
153873
153873
153873
153873
153861
153859
153855
153854
153845
153840
153830
153826
153813
153805
153790
153784
153771
153757
153741
153730
153713
153696
153679
153662
153645
153628
153609
153591
153573
153556
153538
153520
153502
153485
153468
153451
153435
153419
153404
153391
153377
153364
153351
153339
153327
153315
153304
153294
153284
153274
153264
153255
153246
153238
153230
153222
153214
153207
153201
153193
153187
153180
153174
153168
153162
153156
153150
153145
153140
153135
153131
153127
153123
153119
153116
153112
153109
153106
153102
153099
153096
153093
153090
153087
153085
153081
153080
153078
153076
153074
153072
153071
153068
153066
153064
153062
153060
153057
153054
153053
153050
153049
153047
153045
153043
153041
153040
153038
153037
153035
153034
153033
153031
153030
153029
153027
153025
153024
153022
153020
153019
153017
153016
153014
153012
153011
153010
153008
153007
153006
153005
153004
153003
153002
153001
152999
152998
152997
152996
152995
152994
152993
152992
152991
152990
152989
152988
152986
152986
152985
152984
152984
152983
152982
152981
152981
152980
152980
152979
152978
152977
152977
152976
152976
152975
152975
152975
152974
152974
152972
152972
152971
152970
152969
152969
152968
152967
152967
152967
152967
152966
152966
152965
152965
152965
152965
152964
152964
152964
152964
152964
152964
152964
152964
152965
152964
152964
152963
152963
152963
152963
152963
152963
152963
152963
152963
152963
152963
152963
152963
152963
152963
152964
152964
152964
152964
152964
152964
152964
152965
152965
152965
152966
152966
152966
152966
152967
152966
152966
152966
152967
152966
152966
152966
152966
152966
152966
152966
152966
152966
152966
152966
152966
152967
152967
152967
152967
152968
152968
152968
152968
152969
152969
152968
152968
152969
152969
152969
152969
152970
152970
152971
152971
152972
152972
152972
152973
152973
152973
152973
152973
152973
152974
152973
152973
152973
152973
152973
152973
152974
152974
152974
152974
152974
152974
152975
152975
152976
152976
152977
152977
152978
152978
152978
152979
152980
152981
152981
152981
152982
152982
152982
152982
152983
152983
152984
152984
152984
152984
152985
152985
152985
152985
152985
152985
152985
152985
152985
152985
152986
152986
152986
152987
152987
152986
152987
152987
152987
152987
152988
152988
152988
152989
152990
152990
152990
152991
152991
152992
152992
152992
152992
152992
152992
152992
152993
152993
152993
152993
152993
152993
152994
152994
152995
152995
152995
152995
152995
152995
152996
152996
152996
152996
152996
152996
152995
152996
152996
152996
152996
152996
152996
152996
152996
152996
152996
152996
152996
152997
152997
152996
152997
152998
152997
152998
152998
152997
152998
152998
152998
152998
152998
152999
152998
152998
152998
152998
152997
152997
152997
152997
152997
152997
152997
152996
152996
152996
152996
152996
152996
152996
152996
152996
152996
152996
152996
152997
152997
152997
152997
152998
152997
152998
152997
152998
152997
152997
152997
152997
152997
152997
152997
152997
152997
152996
152996
152995
152996
152995
152995
152995
152996
152995
152995
152996
152996
152996
152996
152996
152996
152996
152996
152996
152997
152997
152997
152997
152997
152997
152997
152997
152997
152997
152997
152997
152997
152998
152998
152998
152998
152998
152998
152998
152998
152998
152998
152998
152998
152998
152998
152998
152997
152997
152997
152997
152997
152997
152997
152997
152997
152997
152996
152996
152996
152996
152995
152995
152995
152995
152995
152995
152995
152994
152995
152995
152995
152994
152994
152995
152995
152995
152995
152995
152995
152995
152995
152979
152980
152970
152975
152965
152958
152950
152946
152933
152922
152913
152897
152888
152876
152859
152844
152830
152813
152794
152777
152763
152745
152727
152711
152693
152675
152658
152640
152623
152605
152588
152572
152555
152539
152525
152511
152497
152484
152471
152458
152447
152435
152425
152414
152404
152393
152385
152376
152367
152359
152351
152343
152336
152328
152322
152314
152308
152302
152296
152289
152284
152277
152272
152267
152262
152257
152253
152249
152246
152242
152239
152235
152232
152229
152226
152223
152220
152217
152214
152211
152208
152205
152203
152201
152199
152198
152196
152194
152192
152190
152188
152185
152183
152181
152179
152177
152174
152173
152171
152169
152167
152166
152164
152163
152161
152159
152158
152157
152155
152154
152152
152151
152149
152147
152146
152143
152143
152141
152140
152138
152137
152135
152134
152133
152132
152131
152130
152128
152128
152127
152125
152123
152123
152121
152119
152119
152118
152117
152116
152115
152115
152113
152112
152111
152109
152109
152109
152109
152108
152107
152106
152105
152104
152104
152103
152103
152102
152101
152101
152101
152100
152100
152100
152098
152097
152097
152097
152096
152095
152094
152094
152094
152093
152092
152091
152092
152092
152092
152091
152091
152089
152090
152089
152089
152089
152089
152089
152089
152089
152089
152089
152089
152089
152088
152088
152089
152089
152088
152088
152088
152088
152088
152089
152088
152088
152089
152089
152089
152089
152088
152089
152089
152089
152089
152089
152090
152089
152090
152090
152091
152091
152091
152091
152090
152089
152090
152090
152091
152091
152092
152091
152091
152091
152091
152091
152091
152091
152091
152092
152092
152092
152092
152092
152092
152093
152093
152093
152093
152094
152094
152094
152094
152094
152094
152095
152096
152097
152096
152096
152096
152096
152097
152098
152098
152098
152097
152097
152098
152099
152098
152098
152098
152098
152099
152099
152098
152099
152099
152099
152099
152099
152100
152100
152100
152100
152101
152101
152102
152103
152103
152104
152104
152105
152106
152106
152106
152107
152107
152108
152108
152108
152109
152109
152109
152109
152110
152110
152110
152110
152110
152110
152110
152110
152110
152110
152110
152110
152110
152110
152111
152111
152112
152112
152113
152113
152113
152113
152113
152114
152115
152115
152116
152116
152116
152116
152116
152117
152117
152117
152116
152117
152117
152117
152117
152118
152118
152118
152119
152119
152120
152120
152120
152120
152120
152120
152121
152121
152121
152121
152121
152121
152121
152121
152121
152121
152121
152121
152121
152121
152121
152122
152122
152122
152122
152122
152122
152122
152122
152122
152123
152122
152122
152122
152122
152122
152123
152123
152123
152123
152123
152122
152122
152122
152122
152121
152121
152122
152122
152121
152121
152121
152120
152120
152120
152120
152121
152121
152121
152122
152121
152121
152121
152122
152121
152122
152122
152121
152121
152122
152122
152122
152122
152122
152122
152122
152122
152122
152122
152122
152122
152122
152121
152121
152120
152120
152120
152120
152121
152121
152120
152120
152121
152121
152121
152122
152122
152122
152122
152122
152122
152121
152122
152122
152122
152122
152121
152122
152122
152122
152122
152122
152122
152122
152122
152122
152122
152122
152122
152122
152122
152123
152123
152123
152123
152122
152122
152121
152122
152122
152122
152122
152122
152121
152121
152121
152122
152122
152121
152122
152121
152121
152119
152121
152120
152120
152120
152120
152120
152119
152120
152120
152120
152120
152120
152120
152120
152120
152120
152119
152120
152120
152120
152095
152094
152097
152087
152083
152077
152076
152063
152052
152044
152039
152018
152005
151991
151985
151962
151948
151930
151917
151898
151882
151866
151848
151831
151816
151799
151782
151764
151746
151729
151711
151694
151678
151663
151648
151633
151620
151607
151595
151582
151570
151558
151548
151537
151527
151517
151508
151499
151491
151483
151475
151467
151460
151454
151447
151439
151433
151427
151421
151414
151408
151403
151398
151392
151388
151384
151379
151375
151372
151368
151365
151362
151359
151356
151353
151351
151346
151343
151340
151338
151336
151334
151331
151329
151326
151324
151323
151321
151318
151317
151315
151313
151311
151309
151307
151305
151302
151300
151298
151296
151295
151293
151292
151290
151289
151287
151286
151284
151283
151281
151280
151278
151277
151275
151274
151273
151270
151269
151267
151265
151264
151262
151262
151261
151260
151258
151258
151256
151255
151253
151252
151251
151249
151249
151247
151247
151246
151246
151245
151243
151244
151242
151241
151240
151239
151240
151238
151237
151236
151235
151235
151234
151233
151232
151232
151230
151230
151229
151229
151229
151228
151227
151226
151226
151226
151225
151225
151224
151224
151224
151224
151224
151223
151221
151222
151221
151221
151221
151221
151220
151219
151219
151219
151218
151218
151217
151217
151217
151218
151217
151217
151218
151217
151217
151217
151216
151217
151217
151217
151217
151217
151218
151217
151217
151217
151217
151217
151219
151217
151217
151217
151217
151218
151218
151218
151217
151218
151218
151218
151218
151219
151218
151219
151218
151219
151219
151219
151220
151220
151220
151220
151219
151220
151220
151220
151220
151220
151220
151220
151221
151221
151221
151220
151220
151221
151221
151221
151221
151221
151222
151222
151222
151223
151223
151223
151223
151224
151224
151225
151224
151224
151225
151226
151226
151226
151226
151227
151227
151227
151227
151227
151227
151227
151229
151228
151228
151228
151228
151228
151228
151228
151228
151229
151229
151229
151229
151229
151230
151231
151231
151231
151232
151233
151234
151234
151235
151235
151236
151237
151236
151237
151237
151237
151239
151238
151238
151238
151238
151238
151238
151238
151238
151238
151238
151238
151239
151239
151239
151239
151239
151240
151240
151240
151241
151241
151242
151242
151243
151243
151243
151243
151243
151243
151243
151244
151244
151245
151245
151246
151245
151246
151246
151246
151246
151247
151247
151247
151247
151248
151248
151248
151248
151248
151248
151249
151249
151248
151249
151249
151249
151249
151250
151249
151249
151249
151249
151249
151249
151249
151249
151249
151250
151250
151251
151250
151250
151251
151250
151250
151250
151250
151250
151250
151250
151250
151251
151251
151251
151251
151251
151251
151250
151250
151250
151250
151250
151251
151250
151250
151249
151249
151248
151249
151248
151249
151249
151249
151249
151249
151249
151250
151250
151252
151251
151251
151250
151250
151251
151251
151251
151251
151251
151251
151251
151251
151251
151251
151251
151251
151251
151250
151250
151250
151250
151249
151249
151249
151249
151249
151248
151249
151249
151249
151250
151250
151251
151251
151250
151250
151250
151251
151251
151252
151251
151251
151250
151251
151251
151251
151251
151251
151251
151251
151251
151250
151250
151250
151250
151250
151250
151251
151251
151251
151251
151251
151251
151251
151250
151250
151250
151250
151250
151250
151250
151250
151251
151250
151251
151250
151250
151250
151249
151249
151249
151249
151249
151249
151249
151248
151247
151248
151248
151248
151248
151248
151248
151248
151248
151248
151248
151249
151249
151214
151212
151213
151206
151203
151198
151191
151184
151172
151165
151157
151148
151130
151114
151101
151088
151070
151052
151038
151020
151003
150991
150976
150958
150941
150924
150905
150890
150872
150855
150838
150822
150805
150789
150773
150758
150747
150733
150720
150708
150696
150685
150674
150664
150653
150644
150635
150625
150617
150609
150601
150594
150588
150580
150573
150567
150560
150555
150549
150543
150537
150531
150526
150521
150517
150513
150508