/*--------------------------------*- C++ -*----------------------------------*\
| =========                 |                                                 |
| \\      /  F ield         | OpenFOAM: The Open Source CFD Toolbox           |
|  \\    /   O peration     | Version:  v2012                                 |
|   \\  /    A nd           | Website:  www.openfoam.com                      |
|    \\/     M anipulation  |                                                 |
\*---------------------------------------------------------------------------*/
FoamFile
{
    version     2.0;
    format      ascii;
    class       volScalarField;
    location    "150";
    object      p_rgh;
}
// * * * * * * * * * * * * * * * * * * * * * * * * * * * * * * * * * * * * * //

dimensions      [1 -1 -2 0 0 0 0];


internalField   nonuniform List<scalar> 
65536
(
58769.7
58766.3
58763.4
58759.3
58754.5
58749
58742.3
58734.8
58726.2
58716.9
58706.6
58695.4
58683.3
58670.2
58656.2
58641.6
58626.2
58610.2
58593.4
58576.1
58558.1
58539.5
58520.6
58501.3
58481.9
58462.4
58442.9
58423.8
58405.1
58386.9
58369.3
58352.2
58335.6
58319.7
58304.3
58289.5
58275.1
58261.3
58247.8
58234.9
58222.4
58210.3
58198.7
58187.6
58177
58166.8
58157.2
58147.9
58139
58130.4
58122.1
58113.9
58106
58098.3
58090.9
58083.7
58076.8
58070.2
58063.7
58057.5
58051.6
58045.9
58040.5
58035.3
58030.4
58025.6
58021
58016.6
58012.3
58008.1
58004
58000
57996.3
57992.6
57989.2
57985.9
57983
57980
57977.3
57974.6
57972.1
57969.7
57967.2
57965
57962.7
57960.5
57958.2
57955.9
57953.7
57951.3
57948.9
57946.5
57944.1
57941.5
57939.1
57936.7
57934.3
57931.9
57929.7
57927.4
57925.4
57923.5
57921.7
57920.1
57918.6
57917.4
57916.1
57914.9
57913.8
57912.5
57911.3
57909.8
57908.4
57906.8
57905.2
57903.5
57901.8
57900.1
57898.5
57896.8
57895.1
57893.4
57891.8
57890.3
57888.8
57887.4
57886.1
57884.9
57883.8
57882.7
57881.6
57880.5
57879.3
57878.1
57877
57875.9
57874.7
57873.6
57872.4
57871.2
57870
57868.9
57867.8
57866.8
57865.8
57865.1
57864.3
57863.8
57863.3
57862.9
57862.6
57862.1
57861.8
57861.1
57860.5
57859.8
57859
57858.3
57857.3
57856.4
57855.5
57854.6
57853.7
57852.8
57852
57851.1
57850.4
57849.7
57849
57848.3
57847.7
57847.1
57846.4
57845.8
57845.2
57844.6
57844.3
57843.9
57843.8
57843.7
57843.7
57843.7
57843.9
57843.9
57844.1
57844.1
57844.1
57844.1
57844
57843.9
57843.7
57843.4
57843.1
57842.8
57842.5
57842.2
57842
57841.9
57841.8
57841.7
57841.6
57841.6
57841.6
57841.7
57841.6
57841.9
57841.9
57842.2
57842.4
57842.8
57843.2
57843.6
57844
57844.5
57844.8
57845
57845.2
57845.4
57845.5
57845.7
57845.9
57846
57846.1
57846.2
57846.2
57846.1
57845.9
57845.7
57845.4
57845.1
57844.9
57844.7
57844.7
57844.6
57844.8
57844.8
57845
57845.1
57845.3
57845.5
57845.7
57846
57846.3
57846.7
57847
57847.5
57847.8
57848.3
57848.6
57848.9
57849.2
57849.5
57849.8
57850.1
57850.4
57850.7
57851
57851.3
57851.6
57851.8
57851.9
57852
57852.1
57852.2
57852.3
57852.4
57852.5
57852.5
57852.5
57852.5
57852.4
57852.4
57852.3
57852.4
57852.5
57852.7
57853.1
57853.4
57853.9
57854.4
57854.9
57855.4
57855.9
57856.4
57857
57857.4
57857.9
57858.4
57858.8
57859.2
57859.7
57860.2
57860.8
57861.4
57862
57862.5
57862.9
57863.5
57863.8
57864.2
57864.4
57864.7
57864.8
57864.9
57865
57865.1
57865.1
57865.2
57865.3
57865.4
57865.5
57865.6
57865.6
57865.6
57865.7
57865.8
57866.1
57866.4
57866.7
57866.9
57867.1
57867.4
57867.6
57867.8
57868
57868.3
57868.6
57869
57869.3
57869.8
57870.1
57870.5
57870.8
57871.2
57871.4
57871.7
57871.8
57871.9
57872
57872.1
57872
57872.1
57872.3
57872.4
57872.7
57872.9
57873.3
57873.5
57873.9
57874.1
57874.4
57874.6
57874.8
57874.9
57875.1
57875.1
57875.3
57875.3
57875.4
57875.5
57875.6
57875.6
57875.6
57875.6
57875.6
57875.6
57875.7
57875.8
57875.9
57876.1
57876.3
57876.6
57876.9
57877.3
57877.7
57878.1
57878.4
57878.7
57878.9
57879.1
57879.2
57879.3
57879.4
57879.4
57879.4
57879.3
57879.2
57879.1
57878.9
57878.8
57878.8
57878.7
57878.8
57878.8
57878.8
57878.9
57878.8
57878.8
57878.6
57878.5
57878.2
57878
57877.8
57877.6
57877.3
57877
57876.7
57876.5
57876.2
57876
57875.8
57875.7
57875.6
57875.6
57875.7
57875.7
57875.9
57876
57876.1
57876.2
57876.3
57876.3
57876.2
57876
57875.8
57875.5
57875.2
57874.9
57874.7
57874.5
57874.4
57874.4
57874.4
57874.5
57874.7
57874.9
57875.1
57875.3
57875.4
57875.6
57875.7
57875.7
57875.8
57875.9
57875.9
57876
57876.1
57876.1
57876.2
57876.1
57876
57875.9
57875.7
57875.7
57875.6
57875.7
57875.9
57876.2
57876.4
57876.8
57877
57877.3
57877.5
57877.8
57878
57878.2
57878.4
57878.6
57878.8
57878.9
57879
57879
57879
57878.9
57878.8
57878.6
57878.4
57878.1
57877.9
57877.8
57877.6
57877.4
57877.2
57876.9
57876.6
57876.4
57876.1
57876.1
57875.9
57875.9
57875.8
57875.9
57875.7
57875.7
57875.6
57875.6
57875.5
57875.5
57875.5
57875.5
57875.5
57875.5
57875.4
57875.2
57875
57874.7
57874.4
57874.2
57874
57873.9
57873.8
57873.8
58763.2
58761.2
58758.5
58754.5
58749.9
58744.2
58737.3
58729.7
58721.1
58711.6
58700.9
58689.8
58677.3
58664.4
58650.6
58636.1
58620.8
58604.7
58588.1
58570.5
58552.4
58533.8
58515
58495.9
58476.6
58457
58437.6
58418.5
58399.6
58381.6
58364
58346.9
58330.4
58314.6
58299.3
58284.5
58270.1
58256.3
58242.9
58229.9
58217.3
58205.4
58193.8
58182.8
58172.2
58161.9
58152.4
58143
58134.2
58125.4
58117.1
58108.9
58100.9
58093.3
58085.9
58078.8
58071.7
58065.1
58058.5
58052.4
58046.5
58040.8
58035.5
58030.3
58025.3
58020.5
58016
58011.5
58007.2
58003
57999.1
57995.1
57991.3
57987.8
57984.2
57981.1
57978.1
57975.2
57972.5
57969.9
57967.3
57964.8
57962.4
57960.3
57958
57955.7
57953.4
57951
57948.7
57946.4
57944.1
57941.6
57939.2
57936.6
57934.4
57931.8
57929.6
57927.3
57925
57922.9
57920.7
57918.8
57917
57915.4
57914
57912.6
57911.4
57910.2
57909.1
57907.8
57906.5
57905.2
57903.6
57902
57900.3
57898.6
57897
57895.3
57893.7
57892
57890.4
57888.6
57887
57885.4
57884
57882.7
57881.4
57880.3
57878.9
57878
57877
57875.8
57874.6
57873.4
57872.2
57871.2
57869.9
57868.8
57867.5
57866.5
57865.3
57864.2
57863.2
57862.2
57861.1
57860.3
57859.7
57859.1
57858.6
57858.2
57857.9
57857.4
57856.9
57856.4
57855.7
57855
57854.2
57853.5
57852.5
57851.7
57850.8
57849.9
57849.2
57848.2
57847.4
57846.7
57845.9
57845.2
57844.4
57843.7
57843
57842.3
57841.6
57841
57840.5
57840
57839.7
57839.3
57839.3
57839
57839
57839
57839.2
57839.2
57839.4
57839.3
57839.4
57839.3
57839.3
57839.3
57839.1
57838.7
57838.4
57838.1
57837.9
57837.7
57837.4
57837.2
57837.1
57837
57837
57837
57837.1
57837.1
57837.2
57837.4
57837.4
57837.5
57837.9
57838.2
57838.5
57838.9
57839.3
57839.7
57840.2
57840.4
57840.5
57840.8
57840.9
57841.2
57841.2
57841.4
57841.5
57841.5
57841.6
57841.5
57841.2
57840.9
57840.7
57840.5
57840.3
57840.2
57840.1
57840.2
57840.3
57840.2
57840.3
57840.5
57840.7
57841
57841.1
57841.4
57841.7
57842
57842.4
57842.8
57843.2
57843.6
57844
57844.2
57844.5
57844.8
57845
57845.3
57845.6
57845.9
57846.1
57846.6
57846.9
57847
57847.3
57847.4
57847.4
57847.6
57847.6
57847.7
57847.9
57847.8
57847.8
57847.7
57847.7
57847.7
57847.7
57847.8
57847.9
57848.1
57848.4
57848.8
57849.3
57849.8
57850.3
57850.8
57851.4
57851.8
57852.3
57852.8
57853.4
57853.7
57854.2
57854.5
57855
57855.5
57856
57856.6
57857.2
57857.7
57858.2
57858.7
57859.1
57859.4
57859.6
57859.8
57860
57860
57860.2
57860.3
57860.4
57860.5
57860.5
57860.7
57860.8
57860.9
57860.8
57860.9
57860.9
57861
57861.2
57861.6
57861.7
57862.1
57862.3
57862.7
57862.9
57863.2
57863.3
57863.7
57864
57864.5
57864.7
57865.3
57865.4
57865.8
57866.2
57866.6
57866.9
57867.2
57867.2
57867.3
57867.5
57867.5
57867.5
57867.5
57867.5
57867.7
57868
57868.3
57868.6
57868.9
57869.2
57869.4
57869.8
57870
57870.2
57870.3
57870.5
57870.5
57870.8
57870.8
57870.8
57870.9
57870.9
57871
57871
57870.9
57870.9
57870.9
57870.9
57871.1
57871.2
57871.5
57871.7
57872
57872.2
57872.6
57872.9
57873.3
57873.8
57874
57874.2
57874.5
57874.4
57874.7
57874.7
57874.7
57874.6
57874.6
57874.4
57874.2
57873.9
57874
57873.9
57874
57874.1
57874
57874
57873.9
57873.8
57873.9
57873.8
57873.6
57873.4
57873.2
57873
57872.7
57872.5
57872.3
57872.1
57871.8
57871.6
57871.3
57871.1
57871
57870.9
57871
57871.1
57871.2
57871.3
57871.4
57871.6
57871.7
57871.7
57871.7
57871.8
57871.7
57871.3
57871
57870.7
57870.4
57870.1
57870
57869.9
57869.9
57869.9
57869.9
57870.1
57870.4
57870.5
57870.9
57870.8
57871
57871
57871.1
57871.3
57871.4
57871.4
57871.5
57871.4
57871.5
57871.4
57871.4
57871.3
57871.2
57870.9
57870.9
57871
57871
57871.2
57871.5
57871.8
57872.2
57872.4
57872.7
57872.9
57873.1
57873.3
57873.5
57873.8
57873.9
57874.1
57874.3
57874.3
57874.3
57874.3
57874.2
57874.1
57873.8
57873.6
57873.4
57873.3
57873.1
57872.9
57872.8
57872.6
57872.4
57872
57871.8
57871.6
57871.4
57871.3
57871.3
57871.2
57871.4
57871.1
57871.2
57871
57870.9
57870.9
57870.9
57871.1
57871
57871
57870.9
57870.7
57870.6
57870.2
57870.1
57869.7
57869.7
57869.4
57869.3
57869.3
57869.4
58755
58753.7
58749.7
58747
58740.9
58735.6
58728.2
58721.2
58711.6
58701.9
58691.4
58680.2
58667.7
58654.7
58640.6
58626
58610.6
58594.4
58577.7
58560.3
58542.4
58523.8
58504.7
58485.3
58466.3
58446.9
58427.5
58408.5
58390
58371.9
58354.5
58337.4
58320.9
58305.3
58289.9
58275.3
58260.9
58247.2
58233.9
58221
58208.5
58196.3
58184.8
58173.7
58163.2
58153
58143.1
58133.8
58124.9
58116.5
58108
58099.8
58092.1
58084.3
58076.9
58069.9
58063.2
58056.4
58050
58043.5
58037.8
58032.1
58026.5
58021.3
58016.3
58011.5
58006.9
58002.4
57998.3
57994
57989.9
57986.1
57982.6
57978.9
57975.5
57972.5
57969.4
57966.3
57963.5
57960.8
57958.1
57956
57953.6
57951.4
57949
57946.9
57944.5
57942.4
57940
57937.6
57935.4
57932.9
57930.5
57928.1
57925.5
57923.3
57921
57918.5
57916.4
57914.2
57912.2
57910.3
57908.5
57906.8
57905.3
57904.1
57902.9
57901.7
57900.7
57899.2
57897.9
57896.1
57894.8
57893.2
57891.3
57890
57887.8
57886.3
57884.7
57883.3
57881.7
57880.3
57878.7
57877.2
57875.8
57874.1
57872.7
57871.4
57870.6
57869.1
57867.9
57866.9
57865.8
57864.8
57863.7
57862.7
57861.6
57860.2
57859.1
57857.8
57856.6
57855.8
57854.7
57853.7
57852.9
57852
57851
57850.5
57849.9
57849.4
57849.2
57848.8
57848.3
57847.7
57846.9
57846.1
57845.4
57844.9
57843.8
57842.9
57842.1
57841.4
57840.8
57840
57839.3
57838.1
57837.6
57836.8
57836.1
57835.5
57834.9
57834.4
57833.8
57833.3
57832.6
57832.2
57832
57831.7
57831.5
57831.1
57831.1
57830.8
57830.7
57830.9
57831.2
57831.1
57831.3
57831.4
57831.5
57831.2
57830.8
57830.4
57829.8
57829.5
57829.2
57828.8
57828.6
57828.7
57828.7
57828.8
57828.7
57828.6
57828.6
57828.8
57828.6
57828.8
57828.8
57829.5
57829.4
57829.7
57830
57830.4
57830.7
57831.2
57831.6
57831.6
57832
57831.9
57832.4
57832.4
57833.2
57833.1
57833.3
57833.4
57833.4
57833.2
57833.3
57833
57832.4
57832.1
57831.8
57831.7
57831.5
57831.6
57831.8
57831.9
57832.1
57832.3
57832.6
57832.6
57832.8
57833.1
57833.1
57833.7
57833.9
57834.4
57834.7
57835.1
57835.1
57835.6
57835.7
57835.8
57836.1
57836.6
57836.7
57837
57837.5
57838
57838.4
57838.6
57838.7
57838.8
57838.9
57838.9
57839.1
57839.3
57839.1
57839.4
57839.4
57839.5
57839.4
57839.6
57839.5
57839.1
57839.3
57839.7
57840.1
57840.4
57840.8
57841.3
57841.7
57841.9
57842.5
57842.9
57843.4
57843.9
57844.5
57844.9
57845.3
57845.8
57846.1
57846.7
57847.4
57847.9
57848.5
57849.1
57849.6
57850
57850.1
57850.5
57850.7
57851
57851.1
57851.4
57851.3
57851.5
57851.6
57851.7
57851.9
57852.1
57852.2
57852.4
57852.3
57852.2
57852.2
57852.6
57852.7
57853.1
57853.5
57853.7
57853.7
57854.1
57854.4
57854.9
57854.9
57855.2
57855.6
57856.2
57856.7
57857
57857.1
57857.6
57857.7
57858.2
57858.4
57858.7
57858.8
57859
57859
57859.2
57859.1
57859.2
57859.4
57859.6
57859.5
57859.9
57860.3
57860.5
57861
57861.4
57861.6
57861.8
57861.9
57861.9
57862
57862.2
57862.5
57862.6
57862.7
57862.8
57862.8
57862.9
57862.7
57862.9
57862.8
57862.8
57862.8
57862.7
57862.7
57863
57863
57863.4
57863.6
57863.9
57864.2
57864.7
57864.9
57865.4
57865.7
57865.7
57865.9
57865.9
57865.8
57865.8
57865.9
57865.8
57865.8
57865.6
57865.2
57865.1
57865.3
57865.2
57865.2
57865.1
57865.2
57865.5
57865.5
57865.4
57865
57865.2
57864.6
57864.4
57864.2
57864.2
57863.8
57863.6
57863.2
57863.2
57862.9
57862.8
57862.8
57862.6
57862.9
57862.9
57863.1
57863.2
57863.5
57863.5
57863.6
57863.5
57863.6
57863.7
57863.5
57863.3
57863
57862.7
57862.4
57862.2
57862.1
57861.8
57861.6
57861.6
57861.8
57862
57861.9
57862.1
57862.3
57862.3
57862.4
57862.6
57862.7
57862.7
57862.6
57862.7
57862.9
57862.7
57862.9
57863
57863.1
57863.1
57863
57862.8
57862.8
57862.7
57862.6
57862.9
57862.9
57863.2
57863.5
57864
57864
57864.1
57864.6
57864.7
57865
57864.9
57865
57865.2
57865.4
57865.6
57865.6
57865.7
57865.6
57865.7
57865.6
57865.5
57865.3
57864.7
57864.6
57864.3
57864.3
57864.1
57863.9
57863.9
57863.7
57863.6
57863.2
57863.3
57863.2
57863.1
57863
57863.1
57862.8
57862.7
57862.6
57862.6
57862.5
57862.3
57862.3
57862.2
57862.4
57862.4
57862.1
57862
57861.9
57861.8
57861.7
57861.3
57861
57860.9
57860.9
57861
58743.8
58742.5
58739.6
58735.8
58731.1
58724.7
58717.7
58708.4
58700
58689.7
58679.5
58666
58654.8
58641.2
58627.4
58612.2
58597.1
58581.7
58564
58547.1
58528.9
58510.2
58491.1
58472.5
58453.5
58433.8
58414.8
58394.9
58376.7
58358.8
58341.7
58324.3
58307.9
58292.3
58277.6
58262.5
58247.9
58234.1
58220.9
58208.3
58195.8
58183.5
58172
58161.1
58150.6
58140.4
58130.7
58121.2
58112.4
58103.5
58095.3
58086.9
58078.9
58071.3
58064.5
58057.7
58050.2
58043.4
58036.9
58030.7
58024.7
58018.9
58013.6
58008.7
58003.1
57998.3
57994.2
57989.5
57985.3
57981.2
57977.4
57973.5
57969.8
57966.2
57963.5
57960
57957
57954
57951.3
57948.7
57946.2
57943.9
57941.3
57939.7
57936.8
57934.7
57932.2
57929.8
57927.6
57925.6
57923.5
57920.7
57918.1
57915.5
57913.3
57910.8
57909.1
57906.7
57904.4
57902.4
57900.6
57898.5
57896.8
57895.5
57894
57892.3
57890.8
57889.8
57888.9
57887
57885.8
57884.6
57882.8
57881.1
57879.6
57877.4
57876.2
57874.4
57873.2
57871.6
57869.9
57867.9
57866.7
57865.4
57864.3
57862.6
57861
57859.3
57858.2
57857.6
57856.6
57855.3
57854.3
57852.9
57852
57851.3
57850
57848.8
57847.4
57846
57844.8
57843.7
57843.4
57841.9
57840.9
57840
57839.6
57838.8
57838.2
57837.9
57837.8
57837
57836.6
57835.6
57834.8
57834.3
57833.5
57833.2
57831.8
57831.1
57830.1
57829.3
57828.7
57827.8
57827.2
57826.7
57826
57825.3
57824.4
57823.5
57822.6
57822.1
57821.7
57821.6
57821
57820.5
57820.7
57819.9
57820.3
57819.4
57819.2
57819
57819.2
57819.5
57819.8
57819.4
57819.4
57819.6
57819.3
57819.7
57818.9
57818.4
57818.1
57817.9
57818.1
57817.6
57817.4
57817.1
57817.1
57816.8
57817
57816.9
57817.1
57817.4
57817.4
57817.4
57817.2
57817
57817.5
57817.9
57818.2
57818.4
57818.8
57819.1
57820.1
57820.1
57819.9
57820.2
57820.3
57820.9
57821.3
57821.1
57821.3
57821.2
57821.2
57821.3
57821.3
57820.8
57820.5
57820.3
57819.9
57820
57820.1
57820.3
57820.7
57820.3
57820.2
57820.6
57821.3
57821.2
57821.5
57821.4
57822
57822.2
57822.4
57822.8
57822.8
57823.2
57823.7
57823.8
57824
57824.1
57824.3
57824.4
57824.7
57825.4
57825.7
57826.6
57826.4
57826.9
57827.4
57827.3
57827.2
57827.2
57827.2
57827.2
57827.6
57827.4
57827.6
57827.4
57827.5
57828
57827.3
57827.8
57827.7
57827.8
57828.2
57828.7
57829.2
57829.8
57830.2
57830.9
57831.1
57831.1
57831.8
57832.3
57833
57833.6
57833.8
57833.6
57834.2
57834.9
57835.5
57836.2
57837
57837.2
57837.5
57838.5
57838.5
57838.8
57838.7
57839.1
57839.2
57839.1
57839.5
57839.9
57839.8
57840
57840
57840.2
57840.3
57840.9
57840.6
57840.4
57840.4
57840.1
57840.9
57841
57841.6
57840.6
57841.7
57842.1
57842.3
57842.6
57842.8
57843.6
57844.2
57844.7
57844.6
57845.7
57845.5
57845.6
57846
57846.4
57846.6
57847.3
57847.1
57847.3
57847.5
57848.2
57847.3
57847.5
57847.5
57847.7
57848.1
57848.4
57849
57849.2
57849.2
57849.2
57849.6
57850.4
57850.2
57850.2
57850.5
57850.8
57851
57851.2
57851
57851.2
57851
57851.3
57851.1
57850.8
57850.6
57850.6
57850.5
57850.9
57851.1
57851.5
57851.8
57851.8
57851.9
57852.1
57852.3
57852.8
57853.3
57853.6
57854
57853.5
57853.7
57853.9
57854.3
57854
57853.9
57853.8
57854.1
57853.3
57853.5
57853.2
57852.9
57853.2
57853.9
57853.6
57853.2
57853
57852.7
57852.9
57852.7
57852.6
57852.4
57852.4
57852.2
57852.5
57852.1
57851.8
57852
57851.9
57851.7
57851.4
57850.9
57850.9
57850.9
57851
57851.4
57851.9
57852.2
57851.9
57851.9
57851.7
57852.1
57852.1
57852.5
57852.4
57851.6
57851
57850.6
57850.3
57850.3
57850.2
57850.1
57850.1
57850.5
57850
57850.3
57850.6
57851.1
57851.1
57851
57850.8
57851
57851.1
57851.4
57851.5
57851.2
57851.2
57851.4
57851.3
57851.4
57851.4
57851.7
57851.4
57850.9
57850.8
57850.6
57850.8
57851.1
57851.4
57852
57852.8
57852.5
57852.8
57852.9
57853.3
57853
57853.3
57853.4
57853.6
57853.5
57854
57853.7
57853.7
57853.7
57853.9
57854.1
57853.5
57853.1
57852.9
57852.6
57852.7
57852.5
57852.2
57852.5
57851.9
57851.5
57851.3
57851.2
57851.2
57850.9
57851.2
57851.1
57851.8
57851.1
57851.2
57851.1
57850.9
57850.8
57850.6
57850.9
57850.9
57850.7
57851.2
57850.7
57850.1
57849.9
57850.1
57850
57849.8
57849.8
57849.7
57849.6
57850.2
58732.3
58728.5
58730.2
58720.9
58719.2
58711.5
58705.1
58691.9
58684.8
58673.5
58662.6
58651
58637.9
58624.8
58612.6
58596.4
58580.6
58563.1
58547.1
58528.4
58509.8
58491.7
58473.6
58455.1
58437.3
58417.9
58399
58379.4
58360.1
58342.3
58325.3
58307.8
58291.2
58276.3
58261.9
58246.1
58232.3
58218.1
58204.9
58192.4
58179
58167.1
58156.4
58145.6
58135.2
58124.4
58114.9
58105.3
58096.3
58087.5
58079.1
58070.7
58062.8
58055.5
58048.6
58042
58034.2
58027.1
58020.8
58014.7
58009.6
58003.7
57998.1
57993
57987
57981.8
57977.9
57973.2
57969.6
57965.3
57961.4
57957.9
57954.1
57951
57947.1
57945
57941.4
57938.4
57935.4
57933.4
57930.5
57928.4
57925.7
57924.7
57921.7
57920
57916.8
57914.4
57912
57909.7
57908.1
57904.9
57902.5
57899.9
57897.9
57895.4
57894.4
57891.8
57889.6
57887.6
57885.4
57883.8
57881.7
57880.5
57878.3
57877.2
57875.8
57874.4
57873.5
57872
57870.4
57869
57867.3
57866.2
57863.9
57862.4
57860.6
57859.1
57857.6
57857.1
57855.4
57853.4
57851.6
57850.5
57850
57847.5
57845.9
57845
57842.6
57842.7
57841.7
57840.1
57838.6
57837.2
57836.2
57836
57835.2
57832.9
57831.4
57830.7
57830.1
57829.1
57829.2
57827.6
57827.1
57825.8
57824.8
57823.7
57822.8
57822.2
57822.5
57822
57821.5
57820.6
57819.3
57818.6
57817.8
57817.7
57816.5
57815.6
57815.2
57815
57815.2
57814.1
57813.3
57812
57812.1
57811.4
57810.3
57809.2
57808.5
57807.6
57807.2
57807.7
57806.7
57806.3
57806.6
57805.9
57806.1
57805.1
57805.2
57804.2
57803.9
57804
57804.6
57804.1
57804.5
57805.4
57804.6
57805.4
57804.8
57803.7
57803
57802.9
57803.4
57802.5
57802.4
57802.7
57802.7
57803
57802.7
57802.1
57802.9
57803.5
57803.3
57803.1
57803.1
57802.7
57803.7
57803.2
57803.5
57803.7
57803.7
57804
57805.6
57805.5
57805.8
57805.4
57805.6
57805.9
57807.2
57806.5
57806.9
57806.9
57807.2
57807
57807.7
57806.5
57805.6
57805.4
57805.3
57805.5
57805.4
57805.7
57806.6
57805.9
57805.8
57806
57806.7
57806.5
57807.1
57806.7
57806.6
57807.5
57807.5
57807.7
57808
57808.9
57808.9
57809
57809.1
57808.8
57808.8
57809.3
57809.4
57809.8
57810.2
57812
57811.6
57811.4
57812.3
57811.9
57811.8
57811.9
57811.9
57812.1
57812.7
57812.6
57812.9
57812.5
57812.7
57813
57812.6
57812.5
57812.6
57813.1
57813.5
57814
57814.4
57815.3
57815.4
57815.3
57815.9
57816.1
57816.3
57816.5
57817.8
57818.9
57818.8
57818.9
57818.6
57819.6
57820.1
57820.8
57822.2
57822.2
57822.7
57823.7
57823
57823
57823.3
57823.8
57824.5
57824.6
57824.4
57824.7
57824.6
57824.7
57824.8
57825.7
57825.8
57826
57825.2
57825.1
57825.4
57825.2
57825.7
57826.2
57827.6
57826.5
57826.8
57827.2
57827.1
57828.2
57827.7
57828.5
57829.8
57830.6
57830.4
57830.9
57830.3
57830.7
57830.8
57831.8
57832.2
57832.9
57832.3
57832.4
57832.7
57834.1
57833.2
57833.5
57833.6
57833.2
57833.1
57833.6
57834.7
57834.7
57835
57835.1
57835.2
57835.9
57835.6
57835.2
57835.6
57836
57836.8
57837.2
57836.7
57836.6
57836.6
57836.9
57836.2
57836.5
57836.7
57836.2
57836.2
57835.9
57836.2
57837.1
57836.8
57836.9
57837.5
57837.4
57837.7
57837.8
57838.4
57839
57840
57839.3
57838.8
57838.9
57839.3
57838.8
57839.3
57838.7
57839.1
57838.2
57837.7
57837.6
57837.9
57838.3
57838.8
57838.2
57837.8
57838.2
57838
57838.1
57838.1
57837.9
57837.1
57836.8
57836.9
57837.9
57837.1
57836.9
57836.9
57837.5
57837
57836.6
57836.3
57835.9
57836.8
57836.6
57836.9
57838.1
57838.8
57837.8
57838.3
57837.6
57837.2
57837.5
57838.4
57838.1
57837.1
57836.6
57836.4
57836.3
57836.5
57835.7
57835.5
57835.6
57836.2
57835.4
57835.4
57835.7
57836.8
57836.6
57836.1
57836.3
57836.6
57836.3
57836.7
57836.9
57836.8
57836.6
57836.4
57836.6
57836.8
57837.1
57837.8
57836.7
57835.8
57835.9
57836.4
57837.1
57836.3
57836.7
57837
57837.9
57837.6
57837.6
57838.5
57839
57838.4
57838
57838
57838
57838.4
57839.3
57838.8
57838.7
57838.7
57839
57839.5
57838.8
57838.7
57837.9
57838
57837.7
57837.6
57838.1
57838.4
57837.8
57837.4
57837
57837.1
57837.1
57837
57836.6
57836.7
57837.6
57836.4
57836.8
57836.1
57836.5
57836
57835.9
57836.2
57835.8
57835.9
57836
57835.4
57835.4
57835.4
57835.5
57835.1
57835.1
57834.4
57834.5
57835
57836.1
58721.6
58716.9
58711.7
58710.5
58701.4
58696.1
58686.1
58680.4
58667.8
58658.8
58643.1
58636.7
58623.7
58608
58591.6
58579.8
58561.8
58543.8
58526.1
58508.4
58490.8
58473.7
58454.7
58435.3
58416.7
58398.1
58380.6
58361.8
58342.1
58323.5
58305.7
58288.1
58271.8
58257.3
58240.5
58226.4
58211.4
58197.7
58184.9
58172.8
58160.3
58147.9
58136.5
58126.8
58116.5
58105.1
58094.7
58085.4
58076.5
58068.2
58060.2
58050.9
58043.2
58035.3
58029.5
58021.4
58015.4
58008.5
58002.4
57995.6
57990.7
57984.8
57978.8
57971.6
57966.3
57961.4
57957.1
57953.5
57950.7
57945.8
57942.1
57939.1
57935.4
57932.2
57928.1
57926
57922.3
57919.9
57916.2
57913.1
57911.5
57908.5
57906.2
57905
57902.2
57901.1
57897.9
57895.5
57893.1
57891.3
57888.3
57886.1
57883.8
57881.6
57878.3
57877.3
57874.7
57873.8
57871.1
57870.1
57867.6
57866.4
57863.8
57861.5
57860.6
57859.8
57857.6
57856.2
57854.9
57853.4
57852.1
57851.5
57849
57848.4
57845.9
57844.3
57843.4
57840.5
57839.8
57838.7
57836.3
57835.1
57834.6
57833.5
57832.3
57829.7
57827.7
57826.5
57826.3
57826.2
57824.6
57822.1
57821.5
57819.3
57818.3
57817.5
57817.5
57815.7
57814.8
57813.2
57811.8
57811.4
57810.8
57809.3
57810
57809.1
57808.4
57806.5
57805.1
57804.5
57803.6
57803.8
57802.7
57802.9
57801.2
57801.1
57799.2
57798.4
57797.8
57797.7
57796.7
57796.8
57797.8
57796.2
57796.2
57795.5
57795.6
57794.7
57792.9
57791.9
57790.8
57790.3
57789.8
57790.2
57789.5
57788.4
57787.4
57787.2
57786.7
57787
57787.7
57786.4
57785.9
57786.2
57786
57786.5
57786.6
57787
57786.1
57785.7
57786.7
57785.4
57784.7
57784.7
57784.3
57785.1
57784.7
57785.7
57785.9
57786.4
57786
57785.4
57785.2
57786.2
57786.4
57785.7
57785.4
57786
57787.1
57786.3
57786.5
57785.5
57785.9
57785.8
57785.7
57787.7
57788.3
57787.3
57787.7
57788.6
57789
57788.2
57789
57788.5
57788.8
57788.7
57790
57788.9
57788.1
57787.5
57787.2
57788.2
57787.7
57788.2
57788.5
57787.7
57787.7
57788.3
57787.5
57787.8
57787.6
57788.4
57789.1
57790.5
57790.8
57790.2
57790.6
57792
57791.8
57790.7
57790.7
57790.4
57790.5
57791.4
57791.3
57792.3
57793
57793.1
57794.3
57793.8
57793.8
57794.6
57794.1
57794.1
57794.1
57794.1
57795.1
57794.6
57795.7
57794.6
57794.2
57794.3
57794.5
57794.2
57795.3
57796
57796.4
57796.3
57796.4
57796.8
57797.7
57797.2
57797.3
57797.4
57797.9
57798.3
57799.6
57799.4
57800.7
57800.2
57801.3
57802
57802.4
57802.7
57803.6
57803.2
57803.5
57804.5
57804.1
57804.3
57804.8
57805.8
57807.4
57807.5
57807
57807.7
57806.9
57807
57807.4
57808.4
57807.2
57807.1
57807.5
57807.2
57807.5
57808.4
57808.4
57808.2
57809.7
57809.5
57808.7
57809
57809.4
57810.1
57809.9
57810
57810
57810
57811.8
57811.7
57812.3
57812.9
57812.9
57814.1
57813.7
57814.3
57813.9
57813.9
57814.4
57815.5
57816.4
57816.1
57816.7
57816.3
57815.9
57816.6
57817.2
57817.6
57818.4
57817.6
57817.1
57816.8
57817.5
57817
57817.4
57818.5
57819.6
57819.5
57818.8
57818.9
57818.7
57818.3
57817.9
57818.4
57819.2
57818.5
57818.7
57818.4
57818.8
57820.1
57819.9
57819
57819.4
57818.9
57820.1
57819.6
57819.1
57819.9
57821.1
57820.9
57820.4
57820.1
57820
57820.3
57820.8
57819.9
57819.3
57820
57821
57820.2
57820.1
57819.6
57820.3
57820
57820.1
57820.4
57820.4
57820
57819.9
57820
57818.7
57818.3
57818.3
57819.4
57819
57818.4
57819.4
57819.7
57820
57819.6
57818.4
57818.8
57819.8
57818.9
57819.3
57820.2
57821.1
57820.1
57821
57819.6
57819.6
57819.6
57819.1
57819.2
57818.7
57818.3
57818.2
57818.7
57820
57818.5
57817.9
57817.7
57817.1
57817.4
57817.4
57817.9
57818.6
57819
57819.3
57818.4
57819.4
57819.5
57819.6
57819.9
57819.1
57818.2
57818.7
57818.9
57819.8
57819.5
57820.1
57819.8
57819.4
57819.5
57818.9
57820.3
57819.2
57819
57819
57818.8
57819.1
57819.8
57820.9
57820.3
57820.3
57820.3
57820.7
57820.1
57820.2
57820.7
57820.2
57820.2
57820.3
57821.2
57820.8
57821
57821.3
57820.7
57819.9
57820.5
57819.7
57820.7
57819.6
57819.2
57819.3
57819.6
57819.5
57819.6
57819.3
57818.6
57818.2
57817.7
57819
57818.8
57818.7
57819
57818.3
57817.7
57817.3
57818.1
57817.5
57817.1
57817.5
57817.1
57817.5
57818.5
57818.7
57817.8
57817.1
57816.8
57816.6
57816.2
58704.5
58702.3
58692.1
58696.3
58686.9
58680.5
58670.6
58666
58651.6
58640.7
58629.9
58613.7
58605.1
58590.4
58571.6
58556.1
58541.2
58523
58502.5
58485
58469.8
58452.6
58433.9
58415
58395.6
58376
58359.1
58339.7
58320.6
58301.4
58282.8
58266.5
58249.3
58234.5
58217.9
58203.2
58188.3
58175
58162
58148.3
58136.2
58125.3
58114
58103.6
58092.2
58080.2
58071.3
58061.6
58053.5
58046.1
58037.5
58028.1
58020
58013.6
58007.1
57997.7
57991.2
57986
57979.5
57971.8
57966.3
57959.5
57954.5
57947.4
57942.4
57937.4
57932.8
57929.3
57927.3
57923.1
57919.7
57917
57912.8
57910.7
57907.2
57903.5
57899.9
57897.3
57893.5
57890.3
57888.9
57885.7
57884.2
57881.4
57879.6
57878.6
57875.8
57874.3
57871.9
57870.1
57866.2
57863.8
57861.6
57860.9
57857.9
57857.5
57853.1
57852.4
57849.6
57848.2
57845.7
57844.5
57841.8
57840.1
57839.1
57837.2
57836.4
57835.2
57832.9
57831.2
57831
57830.1
57827.3
57825.8
57824.8
57822.3
57822.4
57819.2
57818.6
57815.8
57815.1
57813.3
57813.7
57812.3
57809.6
57808.4
57806.4
57804.9
57805.2
57804.7
57803
57800.7
57800.5
57797.7
57796.3
57794.6
57793.6
57793.9
57793.6
57792.6
57791.8
57789.7
57788.4
57787.3
57785.7
57786.3
57787.4
57786.1
57784.3
57783.4
57781.1
57780.2
57779.8
57780.5
57779.9
57780.1
57777.8
57776.7
57777.2
57777.5
57776
57776.2
57775.9
57774.3
57774.3
57775.3
57774.5
57773.3
57771.8
57771.4
57770.9
57770.4
57768.3
57767.2
57766.3
57767.2
57766.2
57766.7
57765.4
57766
57763.9
57764.8
57764.5
57764.4
57763.8
57765.6
57765.5
57763.6
57763.8
57763.1
57764.4
57764.6
57763.7
57763.7
57762.8
57764.4
57764.3
57764.1
57765.1
57764
57764.9
57765.6
57764.9
57763.9
57765.1
57765.4
57765.3
57766.4
57765.3
57764.4
57765.7
57765.2
57765.4
57763.9
57763.2
57765.3
57764.1
57765.7
57765.3
57767.5
57767
57767.1
57768.1
57767.2
57765.8
57766.6
57765.6
57766.7
57767.1
57766.4
57766.2
57767.1
57767.1
57768
57766.7
57766.6
57767.4
57767.6
57766.2
57766.4
57766
57767
57768.1
57769.2
57769.9
57769
57769.3
57770.9
57771.3
57770
57769.7
57769.5
57769.2
57769.7
57770.6
57772.2
57773.8
57771.7
57773
57772.1
57772
57773.6
57773.8
57773.2
57772.8
57772.4
57773.2
57773.3
57774.8
57773.1
57772.8
57772.1
57772.7
57774.9
57775.4
57774.6
57775.8
57775.7
57774.7
57775
57776
57775.4
57775.3
57776.1
57777
57776.7
57777.5
57777.8
57779.2
57779.3
57781.3
57781
57781.3
57781
57781
57781.7
57782.3
57783.3
57783.9
57783.7
57784.2
57785.4
57786.2
57786.1
57786.4
57787.9
57786.5
57786.3
57786.1
57787.2
57786.1
57785.4
57786.6
57785.7
57786.2
57786.6
57786.9
57786.2
57786.1
57788.2
57788.2
57788.3
57788.2
57789.7
57790.3
57789.8
57789
57788.8
57791
57789.7
57789.9
57791
57791.3
57792.1
57792.4
57792.6
57792.6
57792.7
57793.1
57793.5
57795
57794.7
57793.8
57794.5
57794.9
57795.7
57795.5
57796.8
57797.7
57797.2
57795.3
57795.2
57795.7
57795.2
57795.8
57796.5
57797.7
57797.3
57798.1
57799.3
57799.1
57798.2
57797.6
57797.6
57797.7
57797.3
57798.3
57797
57797.6
57799.4
57799.6
57797.9
57797.7
57798.9
57797.8
57798.9
57798.6
57798.8
57798.4
57800.5
57798.5
57798.5
57797.7
57798
57797.3
57798.3
57797.8
57799
57800.8
57799.2
57798.3
57798
57798.4
57798.3
57798.7
57798.5
57799.8
57798.8
57799.3
57797.9
57797.1
57796.5
57796.1
57795.7
57796.9
57796.8
57798.5
57798.1
57799.3
57799.1
57798.5
57797.5
57797
57797
57797.3
57797.4
57796.7
57797.2
57798.5
57798.5
57798.4
57798.6
57797.1
57797.7
57797.8
57797.2
57797.3
57798
57799.1
57797.7
57797.5
57797.5
57796
57795.6
57795.7
57796.2
57797
57797.7
57799.3
57797.8
57798.1
57799.8
57799.7
57799.9
57799.7
57799.8
57798.9
57799.1
57800
57799.1
57797.8
57799.3
57800
57798.3
57797.8
57796
57797.1
57798.2
57798.2
57798.3
57798.5
57798.9
57799.5
57798.5
57799.5
57799.2
57800.3
57799.1
57798.4
57798.5
57799.3
57799.5
57799.5
57799.6
57798.6
57799.6
57799.1
57800
57799.1
57799.8
57798.4
57797.3
57797.3
57798.3
57799.2
57799.6
57799
57799.5
57799.5
57798
57797.7
57795.5
57798.3
57797.9
57797.1
57796.6
57797.1
57796.4
57796.3
57797.2
57796.2
57796.3
57797.3
57797
57797.4
57797.9
57798.2
57797.1
57796.6
57795.9
57795.5
57795.1
58678.3
58677
58679
58670.1
58666.2
58661.5
58657.8
58644.1
58633.2
58624.7
58616
58593
58580.6
58563.7
58555.5
58531.7
58516.8
58497.7
58482.5
58463.2
58444.9
58427.8
58407.8
58390.2
58372.7
58353.3
58334.5
58315.7
58296.3
58278.2
58257.9
58240.9
58223.8
58208.6
58191.6
58175.5
58162.4
58149.6
58136.2
58121.4
58109.6
58096.3
58086.6
58074.3
58063.4
58052.2
58042.5
58033.8
58026
58018.6
58010
58001.4
57994.3
57988.7
57980.2
57970.3
57964
57958
57951.4
57943.9
57937.5
57931.2
57926.7
57920.5
57915.8
57911.6
57906.5
57903
57901.2
57896.9
57894.6
57891.9
57888.1
57885.4
57882.5
57879.1
57873.5
57869.8
57867.7
57864.7
57862.4
57861.9
57857.6
57855.3
57853.5
57852.6
57850.3
57849
57847.1
57844.3
57840.5
57839.2
57836.8
57836
57833.9
57832
57827.9
57824.9
57824.1
57820.9
57820.4
57817.6
57816.5
57814.4
57814.9
57811.6
57811.8
57810.3
57807.4
57806.3
57806.1
57804
57801.4
57799.4
57799
57798.2
57793.9
57792.9
57791.7
57788.9
57788.6
57787.4
57787.1
57786.6
57784.1
57782.7
57781.2
57779.5
57779
57777.4
57776.4
57774.9
57774.2
57773.3
57770.8
57768.8
57768.7
57770.1
57769.1
57767.8
57768.6
57766.5
57764
57763.5
57762.5
57763.8
57761.4