/*--------------------------------*- C++ -*----------------------------------*\
| =========                 |                                                 |
| \\      /  F ield         | OpenFOAM: The Open Source CFD Toolbox           |
|  \\    /   O peration     | Version:  v2012                                 |
|   \\  /    A nd           | Website:  www.openfoam.com                      |
|    \\/     M anipulation  |                                                 |
\*---------------------------------------------------------------------------*/
FoamFile
{
    version     2.0;
    format      ascii;
    class       surfaceScalarField;
    location    "150";
    object      phi;
}
// * * * * * * * * * * * * * * * * * * * * * * * * * * * * * * * * * * * * * //

dimensions      [1 0 -1 0 0 0 0];
oriented        oriented;


internalField   nonuniform List<scalar> 
130432
(
57.0089
-56.0986
110.108
-53.0253
160.033
-49.8999
208.826
-48.8046
257.96
-49.1765
306.684
-48.8216
355.452
-48.9287
403.723
-48.5094
450.931
-47.4789
498.785
-48.1516
545.887
-47.4348
590.882
-45.345
634.959
-44.4003
677.194
-42.5881
717.726
-40.8817
756.761
-39.3929
793.517
-37.1283
829.81
-36.6414
865.568
-36.0796
899.475
-34.1704
930.071
-30.8124
958.865
-28.9565
987.405
-28.6527
1013.07
-25.7339
1035.72
-22.7282
1056.72
-21.0374
1076.48
-19.7507
1093.97
-17.4525
1107.96
-13.9168
1121.04
-12.9753
1134.04
-12.873
1145.1
-10.8942
1155.36
-10.0819
1164.71
-9.1516
1171.76
-6.84547
1176.99
-5.02617
1180.76
-3.57201
1183.99
-3.0504
1185.92
-1.78576
1186.41
-0.36248
1184.13
2.40578
1179.78
4.45902
1174.71
5.17692
1168.48
6.36195
1161.48
7.1545
1153.01
8.67606
1143.45
9.80255
1133.22
10.5087
1122.54
10.9591
1111.32
11.5111
1098.75
12.8548
1084.6
14.4231
1070.21
14.6307
1055.99
14.4213
1041.97
14.2065
1028.3
13.8105
1013.46
14.9507
996.634
16.9052
980.171
16.5299
963.481
16.744
946.75
16.7695
930.98
15.8068
914.838
16.1809
898.412
16.4775
881.834
16.6302
864.663
17.2301
848.067
16.6569
831.898
16.2353
814.455
17.498
796.667
17.8446
779.851
16.875
762.905
16.996
746.067
16.8828
730.372
15.7261
715.735
14.6663
701.953
13.7861
688.029
13.9408
673.401
14.6495
658.791
14.6506
644.432
14.408
629.794
14.6864
615.802
14.0329
603.002
12.8329
590.159
12.886
576.621
13.5609
563.162
13.4801
549.885
13.2886
535.564
14.3236
521.191
14.3717
508.357
12.8369
496.407
11.9503
484.379
12.0268
472.435
11.93
460.299
12.1184
448.351
11.921
437.352
10.9729
426.555
10.7757
415.854
10.6889
404.945
10.9049
394.553
10.3965
384.863
9.7219
375.589
9.32477
366.648
9.00574
358.07
8.65905
349.526
8.61816
341.597
7.99421
334.452
7.20711
327
7.52167
318.632
8.43689
310.129
8.57024
302.406
7.79078
294.493
7.99821
286.592
7.98421
278.377
8.28646
270.686
7.79668
264.019
6.75304
257.854
6.26978
251.693
6.26308
246.135
5.66126
241.127
5.10384
236.936
4.26205
233.134
3.85684
228.806
4.38066
224.596
4.23947
219.881
4.74787
214.191
5.7175
207.852
6.36952
201.41
6.46817
195.736
5.69899
190.665
5.09439
185.106
5.5792
179.29
5.81099
173.713
5.56974
168.183
5.49427
162.972
5.17377
159.721
3.19578
157.284
2.37508
154.195
3.01906
150.693
3.4423
146.282
4.34845
141.597
4.63198
137.498
4.05415
134.151
3.33281
131.444
2.68934
129.086
2.35112
127.115
1.98312
125.211
1.93544
122.402
2.86296
119.282
3.18545
116.433
2.92846
113.619
2.88916
111.018
2.67188
109.911
1.17962
109.708
0.271047
108.646
1.13831
106.639
2.08677
104.644
2.07755
103.446
1.26504
101.832
1.69618
99.2794
2.64907
96.2224
3.14344
93.3494
2.96189
89.8822
3.53736
85.9863
3.97191
83.0815
2.98449
80.6524
2.51503
79.1579
1.56952
77.5156
1.70601
75.4623
2.12408
72.8817
2.65469
69.4868
3.46456
66.8029
2.75738
64.1939
2.67367
62.6066
1.6391
61.9821
0.663141
61.0733
0.935254
60.8992
0.18105
61.0049
-0.0999152
61.175
-0.164339
61.1423
0.0528464
60.943
0.225867
60.5889
0.392877
59.5887
1.05079
59.4045
0.238364
59.5568
-0.113082
58.0634
1.52428
55.7931
2.27842
53.3681
2.41921
51.0753
2.26902
49.4649
1.58156
47.6959
1.7386
46.3683
1.31383
45.1419
1.219
44.6884
0.455596
45.3728
-0.67994
45.563
-0.172527
44.8684
0.713933
43.0982
1.78205
41.084
2.02652
39.1771
1.91048
38.3856
0.792219
38.4128
-0.0212269
38.5198
-0.111079
39.3065
-0.781646
38.7091
0.603355
37.0773
1.65473
36.3632
0.737728
36.0213
0.355084
35.4804
0.556182
34.2537
1.25649
33.1929
1.08039
33.2268
-0.0177526
32.8935
0.35805
32.0114
0.896895
31.039
0.983721
30.059
0.993995
29.1894
0.869524
28.175
1.01074
26.5953
1.55348
25.4963
1.06363
25.6589
-0.226847
25.194
0.397348
24.3509
0.771457
24.4866
-0.215569
24.8581
-0.463648
25.384
-0.616231
25.6996
-0.415391
26.3293
-0.739231
26.2719
-0.033975
25.6677
0.513688
25.8904
-0.313256
25.6912
0.106829
24.7079
0.901088
22.809
1.82563
21.1263
1.62213
19.8604
1.20292
18.2913
1.51251
18.0752
0.174693
19.1768
-1.1304
19.9279
-0.759197
20.9027
-0.964658
20.9718
-0.0700998
20.3344
0.646618
20.331
0.00544866
20.1681
0.157881
19.5159
0.651134
18.7868
0.727718
18.3523
0.438061
18.1852
0.177742
17.9225
0.279577
16.6419
1.31091
15.9801
0.700894
15.8363
0.185281
15.7455
0.134457
16.7728
-0.972255
16.879
-0.0409316
16.3811
0.560414
16.661
-0.222374
16.6989
0.0122384
16.9093
-0.152716
17.3548
-0.392881
16.372
1.04408
15.2812
1.13772
14.4395
0.89416
13.5509
0.933868
13.1638
0.43032
12.8442
0.365202
13.2464
-0.366797
13.6618
-0.3916
13.9384
-0.249515
14.5553
-0.592718
15.0698
-0.486683
14.1049
0.984686
12.0899
2.03587
10.404
1.7004
9.39984
0.996045
8.91517
0.467397
9.31463
-0.429018
10.3579
-1.07975
11.9856
-1.68846
13.322
-1.40525
13.4448
-0.189092
12.3581
1.00308
10.8287
1.43372
10.7546
-0.0178873
11.1379
-0.478295
11.34
-0.295317
11.5352
-0.277666
11.846
-0.39611
11.4238
0.342724
10.8317
0.531868
10.5026
0.2712
9.89804
0.55102
8.86695
0.985418
7.51801
1.31949
6.71298
0.776756
6.10344
0.587952
5.46673
0.63532
5.65979
-0.188654
5.93618
-0.261226
5.63871
0.309617
5.57436
0.0873441
5.60044
-0.00586242
6.52226
-0.911107
8.56189
-2.02513
10.3814
-1.81674
10.3174
0.0624936
8.93351
1.38084
7.51653
1.41549
6.59582
0.921619
6.36509
0.246536
7.60803
-1.21384
8.1596
-0.503567
7.9914
0.220213
8.3497
-0.302251
8.05137
0.328233
7.35996
0.717424
6.70248
0.664867
6.55392
0.155113
6.09116
0.442475
5.41528
0.660183
4.88826
0.502725
4.00943
0.855365
3.49959
0.475032
3.23353
0.247873
3.0836
0.137071
3.70366
-0.626441
4.54399
-0.852964
6.96478
-2.43894
10.3042
-3.35489
11.7697
-1.47063
12.1236
-0.360736
12.3023
-0.182477
11.7808
0.50033
10.4233
1.33242
8.73369
1.65893
7.13477
1.54635
5.49306
1.57595
3.5714
1.85269
2.33701
1.1766
1.62746
0.644648
1.60475
-0.0418048
2.07656
-0.530561
2.70741
-0.686141
3.73557
-1.08325
5.03139
-1.36493
5.93023
-0.969874
6.8508
-1.00101
7.95495
-1.19824
8.06361
-0.208217
7.26038
0.711806
5.56898
1.60077
3.55965
1.93564
2.26939
1.2264
2.0915
0.120091
2.21388
-0.16796
2.75118
-0.590261
3.82629
-1.10645
4.53544
-0.737066
5.07198
-0.550207
5.63276
-0.566681
5.71815
-0.0836526
6.01857
-0.29311
6.60476
-0.579037
6.85843
-0.248133
6.63636
0.227116
6.23437
0.403711
5.80644
0.431045
5.48611
0.320911
5.47538
-0.00479842
5.38299
0.0785167
6.05121
-0.692473
6.32034
-0.290668
6.05228
0.237605
6.24729
-0.22333
6.01008
0.215668
5.52043
0.476245
4.92782
0.56695
4.51002
0.400546
3.68259
0.793301
2.33933
1.32792
2.41486
-0.0862565
2.56962
-0.14727
1.93386
0.637076
2.0153
-0.0817161
2.28568
-0.269135
2.29227
-0.00543243
1.65141
0.649303
1.10213
0.578087
1.2443
-0.122231
1.05193
0.207705
1.88808
-0.821256
3.11723
-1.199
3.86857
-0.728198
5.03468
-1.14744
5.53674
-0.50134
5.49921
0.0371006
4.99143
0.500853
4.2682
0.717574
3.11775
1.12817
1.41351
1.68919
-0.259126
1.65867
-1.03562
0.757993
-0.367924
-0.677994
-0.308738
-0.0754047
-0.733379
0.412348
-0.242611
-0.4971
1.60279
-1.84918
3.55989
-1.96958
4.34552
-0.801873
4.33088
-0.0295794
3.75643
0.526406
2.84903
0.845778
1.70902
1.07863
-0.0238409
1.68104
-0.894445
0.833042
-0.275996
-0.643752
0.860039
-1.15451
1.71637
-0.87224
1.46333
0.253798
1.1086
0.363047
1.45235
-0.339299
2.14258
-0.684015
2.72141
-0.563614
2.91605
-0.182251
2.83269
0.0980105
2.18901
0.659504
1.11612
1.09152
-0.0391943
1.17116
-1.41786
1.40729
-2.42613
1.03774
-2.94597
0.548375
-2.57748
-0.348259
-2.47718
-0.10054
-1.82505
-0.665379
-0.372881
-1.47716
0.621951
-1.02249
1.5632
-0.992376
1.72222
-0.20296
2.53752
-0.882385
3.05566
-0.586705
3.41332
-0.417481
3.6692
-0.306918
3.15041
0.469474
2.65512
0.45308
2.45296
0.176428
2.81066
-0.362987
3.33508
-0.529161
3.43888
-0.0942333
3.55679
-0.109206
4.58166
-0.996007
5.23506
-0.632927
5.45404
-0.194301
5.24624
0.233049
5.06425
0.193684
5.13408
-0.0632109
4.14717
0.985067
2.61493
1.51749
1.46948
1.11199
0.959627
0.462515
0.64098
0.257869
-0.484626
1.06549
-1.82112
1.26722
-2.68279
0.788901
-3.47713
0.709958
-3.70206
0.158495
-2.75817
-1.01576
-1.66913
-1.16177
-0.316039
-1.43265
1.78307
-2.16909
3.33538
-1.62711
3.4537
-0.186677
2.97227
0.433221
2.92003
0.0193447
2.22765
0.670804
0.91064
1.30472
-0.358661
1.25841
-1.60316
1.26204
-2.65971
1.07207
-3.31205
0.674617
-3.75793
0.468433
-3.85942
0.124699
-3.55018
-0.273385
-2.74896
-0.780199
-1.41984
-1.31002
-1.03431
-0.36835
-1.43803
0.42423
-0.378057
-1.04028
1.46665
-1.8416
1.59451
-0.112592
1.35077
0.263831
2.28955
-0.909151
2.71306
-0.365577
1.98765
0.800415
1.27533
0.799264
0.284008
1.08184
-0.488245
0.870703
-0.361407
-0.0276643
-0.403558
0.145382
-0.174681
-0.133063
0.301961
-0.395481
0.904844
-0.530387
0.402917
0.576761
-0.536051
0.990425
-1.04674
0.554144
-2.17754
1.15995
-2.67354
0.513064
-2.20874
-0.442866
-1.50028
-0.671012
-1.03494
-0.431102
-0.713929
-0.283081
-0.676523
57.1857
-113.272
110.049
-105.986
159.306
-99.2134
206.746
-96.4248
254.97
-97.4768
303.885
-97.9164
352.208
-97.491
399.746
-96.3089
447.124
-95.1957
494.99
-96.4104
541.968
-94.7929
587.591
-91.2637
632.698
-89.9684
675.787
-86.0258
715.754
-81.1829
753.234
-77.2209
788.53
-72.7335
824.115
-72.5761
859.914
-72.1408
894.746
-69.2925
927.053
-63.348
956.483
-58.5737
985.039
-57.3539
1011.12
-51.9354
1035.65
-47.2708
1057.66
-43.0768
1074.36
-36.4754
1089.64
-32.6775
1104.31
-28.5578
1117.11
-25.7137
1128.48
-24.1178
1138.17
-20.4305
1148.24
-20.0054
1158.67
-19.3852
1167.92
-15.9069
1175.46
-12.3625
1178.76
-6.65781
1180.31
-4.40921
1181.62
-2.89923
1181.67
-0.267891
1180.65
3.51084
1177.19
8.02273
1170.06
12.4421
1161.23
15.3766
1152.86
15.73
1144.85
16.8788
1137.09
17.8287
1128.98
18.8867
1118.71
21.5638
1105.33
25.1586
1092.12
26.3488
1079.52
27.2855
1066.3
28.0636
1053.29
27.633
1038.96
28.6507
1022.75
30.1398
1007.21
30.5406
991.815
32.3807
976.394
31.9617
960.412
32.7513
943.98
33.248
927.399
32.4444
910.81
32.8361
894.773
32.5708
878.071
33.3999
861.098
34.2524
843.426
34.3889
824.654
35.057
808.16
34.05
792.649
33.4133
776.042
33.5328
760.518
32.5867
744.715
32.7174
727.388
33.1149
710.772
31.2651
695.978
28.6598
682.073
27.8819
667.846
28.929
652.457
30.0826
638.404
28.5124
626.662
26.4926
614.368
26.3359
601.145
26.0906
587.167
26.8462
572.611
28.1395
558.044
28.0135
543.449
27.8943
530.629
27.1439
518.808
26.1924
505.789
25.8329
493.759
23.9632
482.595
23.1685
470.692
23.8263
458.674
24.083
445.818
24.7706
432.995
23.7435
421.584
22.1501
411.485
20.7614
402.065
20.3064
393.051
19.4684
384.629
18.1456
376.762
17.2446
367.605
18.2208
357.166
19.1338
347.763
18.0866
339.063
16.7722
329.868
16.5001
322.064
15.4145
315.435
15.1437
308.998
15.0973
301.735
15.0957
291.973
17.7898
282.212
17.7928
274.659
15.9727
269.286
13.2055
262.531
13.6151
253.971
14.9314
247
13.3012
243.493
9.21178
241.215
7.39588
237.464
8.12972
231.856
9.5465
225.171
11.0718
219.559
9.8573
215.907
8.35957
211.71
9.90429
206.748
11.3425
202.145
11.1624
195.597
12.2886
188.59
12.1297
183.813
10.3334
179.767
9.83569
174.388
10.8804
169.015
10.8459
163.684
10.4268
159.617
7.20146
157.374
4.51866
153.882
6.42879
148.79
8.40563
144.863
8.23547
141.845
7.63087
138.786
7.07418
136.131
5.90378
132.501
6.29709
128.89
5.94516
126.136
4.73937
123.005
5.11057
119.409
6.47059
115.786
6.83952
113.924
4.81877
113.84
3.03888
112.611
3.98864
111.224
2.64632
109.839
1.78183
107.932
3.11959
105.561
4.53008
102.529
5.16532
101.071
2.82226
98.9127
3.91982
95.8445
5.75049
92.1484
6.91735
88.5457
6.6355
86.7455
5.48885
84.956
5.87683
83.0096
5.0088
80.5633
5.03207
79.1613
3.04807
76.7854
4.19871
73.7475
5.24463
72.5785
3.92006
70.1492
6.04501
67.6768
5.34087
66.4593
3.97216
66.4042
1.73832
65.9494
1.16187
63.4192
3.48454
60.8758
2.75759
59.7313
1.06093
61.4575
-1.86289
62.4499
-0.936217
60.5173
2.16723
58.3074
2.6501
56.5405
2.84971
55.6781
1.11486
55.123
0.480388
54.8721
1.77821
55.3532
1.76614
54.8498
2.84897
53.9604
3.11817
52.583
2.9504
49.5539
4.78347
47.5137
3.31501
45.0782
3.64312
43.1537
2.36284
43.455
-0.995417
42.4319
0.82674
40.9413
2.1904
41.4996
1.26769
42.1804
1.37845
40.5366
3.58436
39.0264
2.33044
37.9926
1.01477
36.2327
1.66867
35.3626
0.0527071
36.4752
-0.481982
37.9046
0.240108
37.6192
1.0943
35.7298
2.33929
33.5899
2.81869
32.1943
2.65671
31.7417
1.56183
32.4996
-0.742005
34.0188
-1.16923
35.2557
-0.320491
35.313
0.944795
33.3529
2.9576
30.1527
4.03941
27.8567
3.28661
27.4466
1.93154
27.4718
1.00974
27.3658
-0.172164
26.5135
1.22715
24.8352
2.38785
23.8995
0.668509
23.091
0.323721
24.7336
-2.32052
27.5358
-3.32265
28.3239
-1.57947
27.053
1.1344
25.1403
2.31769
23.8393
0.904864
22.4024
1.47463
23.0126
0.20074
24.5544
0.196708
23.6727
2.4078
21.43
3.38914
19.4462
3.47744
18.1642
1.43965
17.6163
-0.577815
17.2922
-0.436586
18.54
-2.23248
19.0512
-0.561245
16.8727
2.79609
15.4791
1.36967
16.0864
-0.433346
18.8914
-2.18099
21.014
-1.38582
19.5033
1.96723
17.1053
2.60256
16.5159
0.883981
17.6087
0.244021
19.0159
-0.686645
18.1053
1.13357
15.5809
2.71783
15.6585
-0.98073
17.3244
-1.6825
18.0903
-0.211376
18.4389
-0.516377
17.7009
0.852809
16.4773
1.10985
17.3244
-1.19026
18.0081
0.392584
16.2314
2.97721
13.5237
3.6501
12.7376
1.7661
13.1
0.109461
11.9517
1.56256
11.4308
0.189844
12.5836
-1.48545
14.1905
-1.8185
14.1796
-0.519755
12.7091
1.03286
12.4961
1.25421
12.0688
2.48115
10.112
3.63254
9.56388
1.54587
9.19678
0.802935
7.7421
1.00178
7.62024
-0.98537
10.6529
-4.68097
13.3329
-4.11458
12.9507
0.0892751
12.5017
1.39773
12.5618
1.31711
11.9693
0.467197
10.045
1.35512
8.88718
0.7873
11.1269
-2.62238
13.8855
-3.2248
13.3905
0.769396
13.5229
0.307296
14.0492
-0.327278
11.8918
2.64711
9.51366
3.29893
9.09486
1.64322
8.93504
0.893252
7.81402
1.70895
6.99196
1.4323
6.31415
0.485704
5.35948
0.665447
5.48708
0.204891
5.74493
-0.177455
5.56162
0.199326
7.21368
-2.53892
9.14728
-3.95977
9.78078
-2.46112
9.87408
-0.0415133
9.30395
1.95741
7.76416
2.94613
6.75137
1.96087
5.97751
1.05003
6.15459
-1.35964
5.66978
-0.0027675
6.00013
-0.0747287
7.70097
-1.95748
6.66965
1.44223
4.87779
2.53621
4.72092
0.829301
6.92677
-2.12453
8.79112
-1.33702
8.37292
1.08422
6.44324
2.41458
4.15254
3.1333
4.50023
0.175213
4.35896
0.387041
2.89612
1.60209
2.43663
-0.193149
1.92688
-0.364563
3.90381
-4.44243
8.60504
-8.06184
12.2881
-5.17881
13.3406
-1.42521
12.0685
1.08488
10.5101
2.08285
9.04322
2.77996
6.55633
4.08019
5.88438
2.1645
6.2298
1.17158
4.52076
3.50128
4.18525
1.36208
3.85121
0.933896
1.92864
1.85128
0.848599
0.494773
1.34628
-1.25361
4.43978
-4.24359
8.70646
-5.68994
9.30355
-1.69319
8.29149
-0.101585
8.48352
-1.46049
7.57042
0.630637
6.09595
2.10926
5.37513
2.26074
4.26186
2.95519
2.44771
2.9699
1.89579
0.604936
0.99704
0.64618
-0.512472
0.8935
0.488201
-2.18122
3.04232
-3.32969
5.06504
-2.6111
6.28726
-1.80556
6.12329
0.0739494
6.54153
-0.698416
7.0462
-1.06868
6.66022
0.174668
7.08513
-0.191277
7.21981
0.270533
5.95426
1.6806
4.05055
2.20932
2.80465
1.25489
2.8206
0.026335
5.53171
-3.44244
7.52181
-2.32252
6.89287
0.866115
6.54472
0.122303
6.03046
0.702357
5.1229
1.37018
3.72543
1.93694
2.59032
1.45083
2.35021
1.10134
3.07277
0.587951
5.08946
-2.09842
6.29546
-1.37721
5.54131
1.36055
3.46419
1.9413
1.47451
1.72146
1.58466
-0.0972441
2.61016
-0.370928
2.54581
0.575813
1.36483
1.06239
-0.127022
1.69251
2.06298
-3.00039
4.58282
-3.77948
4.62478
-0.816706
5.45438
-1.98426
5.19202
-0.214527
4.22899
1.0043
4.42479
0.314631
5.07943
0.0704402
3.91214
2.30573
1.10243
4.49683
-0.871492
3.59793
-1.11384
0.971208
-1.18178
-0.71971
-2.77331
1.48195
-3.69969
1.31457
-2.62962
-1.59946
0.189374
-4.73464
3.44177
-5.25317
5.71264
-3.1541
6.66959
-1.01771
5.80466
1.33725
3.24768
3.33307
0.648239
3.62992
-0.373046
2.6353
0.631532
-0.255042
1.4985
-1.61661
1.23808
-0.927497
1.2869
-0.875924
1.52672
0.0381219
1.91866
-0.0538529
1.47643
0.0902139
0.864458
-0.0687866
0.89405
-0.598011
0.0570438
0.656299
-0.673865
0.844629
-0.255245
0.272346
1.37479
-0.514947
1.52657
1.05913
-0.173559
3.12407
-0.509605
1.40397
-0.409352
0.485643
-0.581435
-0.15657
-1.73942
1.07367
-1.33289
-1.07257
-0.0625279
-2.76866
0.0457091
-1.20855
2.18546
-3.10461
3.7984
-1.87981
4.68522
-1.78147
4.95641
-0.899288
4.16504
0.288078
3.21445
0.5674
2.55181
1.08719
2.33265
0.663843
1.71436
0.807225
1.09939
0.199138
2.13161
-1.56194
3.24265
-1.24881
2.8345
0.292853
2.07751
-0.309809
1.06439
0.387128
1.06352
-0.209919
2.57719
-1.28383
4.10395
-1.27367
4.67125
-0.654988
5.14177
0.489795
5.0702
1.56736
2.93891
3.21932
1.28166
2.07369
0.635453
0.862465
-0.999089
2.62471
-0.741317
0.915512
-0.052221
0.0243233
-1.12752
1.74285
-1.02566
-0.0534094
-0.786791
-1.34378
-1.35103
-0.697384
-0.991575
-1.88271
-0.175425
-3.10743
1.70294
-3.56054
2.54247
-1.0565
1.34113
1.59067
2.55712
-1.23699
3.18972
0.016157
1.1966
3.29407
-0.77925
3.25275
-3.54705
4.02437
-5.7297
3.27133
-6.10376
1.07166
-5.37242
-0.253307
-2.15867
-3.03507
1.28743
-3.69019
2.39422
-1.80655
1.93904
-0.771892
-0.105209
1.73748
-2.25873
2.6086
-2.7284
-0.579375
-2.19867
-2.31947
-2.13067
-0.177021
-2.12085
0.265997
-0.149243
-2.835
2.54618
-3.03609
3.6135
-0.204766
3.64187
0.833207
2.88738
1.93232
1.76125
2.09176
0.175686
1.66034
-2.11679
2.51084
-2.92694
0.739318
-2.33938
-0.907394
0.587797
-3.38865
3.10927
-1.92772
3.25215
0.929662
2.08034
1.77121
-0.189006
3.48901
-0.555329
0.896508
-0.456359
-0.519724
-1.63996
0.481179
-2.68366
0.61641
-2.50407
-0.44774
-3.17337
53.3804
-167.128
105.418
-158.124
155.243
-149.615
204.192
-145.317
252.968
-146.876
303.654
-148.796
353.249
-147.473
402.026
-145.177
450.984
-144.549
498.702
-144.378
543.821
-140.256
587.762
-135.485
631.2
-133.552
672.945
-127.999
712.96
-121.546
751.93
-116.505
789.215
-110.312
825.474
-109.117
860.681
-107.621
894.494
-103.248
926.525
-95.4359
955.887
-88.0214
983.202
-84.7773
1008.12
-77.0282
1031.79
-71.0966
1053.4
-64.76
1070.72
-53.9016
1087.39
-49.4811
1103.71
-44.8495
1116.59
-38.5559
1127.67
-35.0985
1137.81
-30.5111
1147.25
-29.305
1156.09
-28.1016
1164.93
-24.6676
1172.84
-20.1268
1176.4
-10.106
1177.71
-5.55073
1177.95
-3.02019
1176.67
1.16442
1175.21
5.2216
1171.95
11.4547
1164.72
19.7456
1155.79
24.3352
1147.48
24.1266
1140.01
24.6219
1132.31
25.7595
1123.87
27.5873
1113.48
32.1483
1099.81
39.1895
1086.68
39.7448
1074.92
39.2359
1062.36
40.8953
1049.26
40.8802
1034.61
43.3924
1018.13
46.6285
1002.87
45.9005
988.09
47.2196
972.977
47.222
957.055
48.7086
940.67
49.6608
923.842
49.2778
906.941
49.6834
890.714
48.6963
874.047
50.053
857.054
51.3541
838.737
52.8552
819.541
54.3508
803.713
49.9683
788.762
48.422
772.132
50.1688
756.556
48.1814
740.992
48.3799
723.815
50.3276
706.956
48.2284
691.479
44.1274
677.206
42.1539
662.961
43.1836
647.413
45.6531
633.727
42.2182
622.83
37.3775
611.233
38.0643
597.793
39.6324
583.266
41.395
568.651
42.7217
554.015
42.6768
539.216
42.6517
526.628
39.7408
515.175
37.6481
502.453
38.5814
490.79
35.638
480.137
33.8293
468.192
35.7836
455.899
36.5045
442.794
37.829
429.765
36.8719
418.485
33.4422
408.57
30.6014
399.524
29.35
391.018
27.8914
383.038
26.2064
375.521
24.7907
366.156
27.6506
355.349
30.0603
345.64
27.8523
336.665
25.7993
327.251
25.9426
318.94
23.7788
312.526
21.759
306.674
21.0147
299.403
22.4716
289.386
27.7876
280.108
27.1145
273
23.0515
267.419
18.8197
260.86
20.3001
252.771
22.9103
245.775
20.3241
241.574
13.4682
238.771
10.3514
234.531
12.3541
228.694
15.4707
221.991
17.9056
216.642
15.3343
213.227
11.885
209.262
13.9152
204.533
16.0502
199.778
15.7994
193.54
18.6383
186.87
18.7378
182.536
14.6209
178.811
13.5481
173.887
15.8077
169.154
15.5631
163.623
16.0041
159.007
11.8935
156.533
7.03245
152.991
9.93047
148.168
13.3065
144.054
12.2592
141.123
10.3991
138.662
9.52816
136.474
8.07888
132.467
10.2404
128.412
9.98822
125.937
7.21675
122.792
8.15943
119.644
9.68897
115.924
10.628
113.57
7.28108
113.433
3.37148
111.996
5.56391
110.461
4.36352
108.946
3.32295
106.498
5.61985
103.253
7.77488
100.178
8.29964
98.7235
4.37662
96.0423
6.68422
92.7273
9.13945
89.4496
10.2304
86.2185
9.90088
84.7458
6.87481
83.9047
6.70903
83.087
5.91636
81.0934
7.02219
79.1317
5.01428
76.238
7.02972
73.0618
8.47236
72.2556
4.84058
70.8611
7.52792
69.0894
7.28567
68.4188
4.84167
68.9802
1.32036
68.3099
1.86115
65.6128
6.22739
63.4508
4.91468
61.0292
3.4691
60.5247
-1.39402
60.6448
-1.03381
58.8862
3.98436
57.0981
4.47397
55.249
4.75045
53.5409
2.9648
52.4205
1.76184
52.6493
1.61147
53.8853
0.585699
53.7808
3.00748
53.4864
3.42626
52.5966
3.66553
49.7037
7.5303
47.6658
5.3673
44.7891
6.4834
42.5239
4.58083
42.8491
-1.42556
41.7378
1.90912
40.3737
3.56653
40.8656
0.772364
41.3744
0.874059
39.8394
5.13964
38.1981
3.98655
37.5001
1.71192
35.7757
3.32753
34.2866
1.56571
35.2848
-1.57361
36.8878
-1.40716
37.0095
0.892895
35.7821
3.65702
33.9668
4.50586
33.4423
3.23504
32.9675
2.05846
32.5921
-0.358158
33.3955
-1.93525
34.3353
-1.25774
34.9023
0.284852
33.8996
3.83449
31.3744
6.60652
29.283
5.31978
28.8303
2.38269
28.3896
1.31301
27.6926
0.535443
26.7228
2.10937
25.2479
3.82022
24.1084
1.74656
23.4966
0.790978
24.4498
-3.45241
26.8023
-5.72434
28.1917
-3.06154
27.3558
1.90856
25.2727
4.32502
22.7998
3.24987
21.5593
2.55909
23.1244
-1.5147
24.7586
-1.57465
24.049
3.02541
21.9389
5.42577
19.7717
5.56693
18.3013
2.87788
17.6088
0.0797205
16.9765
0.13283
17.813
-3.09588
17.8574
-0.602268
15.7304
4.932
14.3589
2.8057
14.8173
-0.920658
17.803
-5.1211
19.9855
-3.5615
19.1307
2.79157
17.1052
4.55034
16.6202
1.4155
18.2544
-1.35507
19.8961
-2.27934
19.1799
1.92889
16.7412
5.26122
15.8885
-0.0885478
16.6206
-2.31376
17.2371
-0.620901
17.6072
-0.904896
16.8184
1.60317
15.8815
2.15013
16.8847
-2.10355
17.857
-0.5442
16.5919
4.26165
14.3033
5.9484
13.4801
2.66722
13.1991
0.494241
12.2876
2.42683
12.327
0.206711
12.6685
-1.80685
12.8785
-1.94482
12.311
0.125138
11.5015
2.04654
11.7539
1.12438
11.6782
2.53872
10.5348
4.83844
10.0668
2.05583
9.63935
1.31374
8.36897
2.30491
7.87029
-0.461877
9.9082
-6.81101
11.999
-6.22873
11.9591
0.147742
12.0552
1.24939
12.03
1.29685
11.4348
1.05413
10.0474
2.6901
9.32602
1.38952
11.3148
-4.71606
13.4596
-5.47923
13.4156
0.7642
13.8776
-0.194403
14.1111
-0.600286
11.9221
4.8002
9.9229
5.25829
9.89567
1.67972
9.63544
1.11866
8.5537
2.74583
7.94766
2.03812
7.40427
1.0077
6.70691
1.39115
6.54281
0.39069
6.29815
0.104646
6.39301
0.105005
7.68612
-3.80398
8.55593
-4.83359
9.52348
-3.43553
10.1635
-0.681114
9.73184
2.32063
8.44938
4.22416
6.98308
3.34134
5.74192
2.23511
5.80171
-1.38106
5.14227
0.733788
5.16965
-0.048424
6.80762
-3.58712
6.23054
2.13621
4.77789
4.0529
4.83135
0.86206
6.86791
-3.98805
8.51047
-2.97
8.49391
1.08773
7.22927
3.71973
5.37879
5.00383
5.16049
0.32603
4.16087
1.42012
3.04262
2.67807
3.32557
-0.499595
2.80264
0.161105
3.84501
-5.4363
7.25248
-11.4687
10.5236
-8.43986
11.1479
-2.03679
9.76766
2.39496
8.64845
3.0796
7.38681
3.96369
5.27104
6.1454
4.88694
2.50392
5.72034
0.271512
4.94778
4.18441
5.42942
0.905157
5.49619
0.769736
3.62132
3.59006
2.5736
1.52216
3.15118
-1.78748
5.39895
-6.55895
8.9235
-9.28635
9.83492
-2.60229
8.719
0.942245
8.2783
-1.1399
7.45077
1.37594
6.35257
3.07572
5.46675
2.98522
3.98046
4.38706
2.27368
4.62057
1.77621
1.04987
0.796425
1.58296
-0.719431
2.31248
0.207219
-3.15614
2.52656
-5.67534
3.99125
-4.07561
5.1212
-2.85877
5.48195
-0.215567
6.01582
-1.22143
6.53648
-1.57436
6.26626
0.401831
6.27545
-0.182405
6.02745
0.572412
5.0507
2.67618
3.71564
3.53918
2.74998
2.16252
2.68305
0.0340374
5.15412
-5.92728
7.19561
-4.40297
6.70625
1.28003
6.16241
0.604195
5.46537
1.4499
4.46488
2.33062
3.84312
2.57595
3.51492
1.89422
3.52217
0.994288
4.40024
-0.259935
5.95069
-3.68953
7.42723
-2.8679
6.91748
1.84676
3.86192
5.00292
1.35274
4.09873
2.12993
-1.02598
3.58515
-1.8612
3.25885
0.954798
2.02487
2.26383
0.729479
3.01351
1.83952
-4.14673
3.27971
-5.14765
3.42131
-0.909742
4.7554
-3.2949
4.77176
-0.153537
3.73111
2.15892
4.06212
-0.00910425
4.99137
-0.913339
4.1529
3.18072
1.29579
7.31948
-1.05129
5.9055
-1.38987
1.2518
-0.8501
-1.19755
-2.16628
2.73858
-3.53134
2.60635
-2.47228
-2.74723
0.412376
-7.61563
2.66556
-7.58017
4.55262
-5.03167
5.95463
-2.43693
5.45518
1.75971
3.12832
5.61931
0.715099
5.96018
0.326722
2.96851
1.34038
-1.3355
1.85473
-2.10501
1.76351
-0.880627
2.03028
-1.27692
1.97456
0.0277755
1.20811
0.756008
0.151395
1.18466
-0.0957822
0.0510694
0.158439
-0.889529
-0.249714
1.08007
-0.82634
1.41889
-0.33342
-0.254531
1.4686
-2.32427
1.64212
0.869116
0.555412
4.22647
0.300761
1.64575
0.0363078
0.697844
0.15229
-0.309311
-0.880496
2.17484
-0.832409
-1.10157
0.448878
-4.00306
0.458794
-1.10167
2.22422
-4.93214
3.73769
-3.38967
4.27494
-2.37271
4.77981
-1.44997
4.40085
0.664259
3.48106
1.39216
2.79505
1.69426
2.11967
1.26172
1.01891
1.76516
0.35925
0.885932
1.20717
-2.41272
2.20494
-2.19092
1.7184
0.764379
1.22166
0.241732
0.506107
1.07111
0.852832
-0.441361
2.46091
-2.85847
3.81239
-2.76107
4.44288
-1.28397
4.65008
0.265979
4.50347
1.67213
2.71134
4.95237
1.7304
3.03744
1.3717
1.14513
-0.420108
4.31665
-0.365798
0.857963
0.408187
-0.813431
0.0357952
2.05591
0.128101
-0.201697
-0.289183
-0.985352
-1.154
0.0907636
-0.728307
-2.34407
0.513761
-4.38543
1.67342
-4.84045
1.43134
-0.93077
0.326007
2.63193
1.52735
-2.42956
2.51307
-0.937026
0.974343
4.85366
-0.888351
5.15167
-3.31397
6.3931
-5.00824
4.91991
-4.81637
0.835614
-4.11154
-0.936896
-0.966864
-6.21462
2.86455
-7.52071
3.6837
-2.65926
2.95872
-0.104861
0.868524
3.84567
-1.58882
5.07021
-2.66512
0.584038
-2.87607
-2.07645
-2.77313
-0.245401
-3.17717
0.686135
-2.12735
-3.95626
0.873063
-5.99617
2.47123
-1.77978
2.62045
0.789244
2.22903
2.40942
1.64966
2.75782
0.885114
2.48341
-1.21485
4.66231
-2.63043
2.17325
-2.53764
-0.955194
-0.290333
-5.51732
2.37814
-4.46457
2.85017
0.483561
1.66592
2.99376
0.0445052
5.08994
0.374265
0.642483
0.69691
-0.818071
-0.11445
1.38337
-1.87508
2.43171
-2.942
0.592152
-6.19538
49.7576
-217.454
100.803
-209.789
152.428
-201.695
202.55
-196.087
252.026
-196.441
302.816
-199.936
353.831
-198.645
403.873
-195.932
453.415
-194.282
500.383
-191.846
545.863
-185.782
589.749
-180.239
632.38
-176.649
673.77
-169.928
713.607
-161.829
752.452
-155.666
791.18
-149.226
828.469
-146.19
863.298
-142.605
895.766
-135.709
926.444
-126.28
954.863
-116.668
980.84
-110.996
1005.61
-101.611
1029.07
-94.0573
1051.04
-86.6957
1070.34
-73.142
1087.73
-66.9143
1104.28
-61.4417
1118.11
-52.4587
1130.16
-47.0297
1140.79
-41.0571
1149.21
-37.6463
1155.95
-34.7787
1162.6
-31.3414
1169.11
-26.507
1173.4
-14.1707
1175.47
-7.43097
1175.12
-2.45454
1172.87
3.59611
1170.07
8.07937
1166.07
15.4672
1159.79
26.2161
1152.29
32.0594
1144.86
31.8091
1137.58
32.078
1129.07
34.4672
1119.03
37.9881
1107.94
43.6896
1094.64
52.5965
1082.04
52.5588
1070.49
51.0397
1058.26
53.1308
1044.96
54.2515
1030.31
58.1252
1014.78
62.0681
999.797
60.7057
984.838
62.0312
969.459
62.3688
953.069
65.0401
936.395
66.2307
920.012
65.487
903.463
66.183
886.778
65.2749
869.755
67.0332
852.517
68.6144
834.449
71.0751
816.288
72.5151
800.322
65.835
784.473
64.2532
767.781
67.0079
751.608
64.4432
735.629
64.3625
719.489
66.4047
703.474
64.4094
687.754
59.7216
673.052
56.8883
658.707
57.612
643.877
60.588
630.515
55.7261
618.664
49.4957
606.425
50.5229
592.939
53.102
578.678
55.7674
564.512
56.9538
550.223
56.9133
536.234
56.6096
523.333
52.5436
510.885
50.0632
498.626
50.8118
487.248
46.9922
476.685
44.4009
464.948
47.4709
452.111
49.1969
439.457
50.5915
427.182
48.9709
416.602
43.9128
406.81
40.4661
397.221
38.9504
388.575
36.6044
380.322
34.462
372.597
32.6
363.517
36.7927
353.375
40.2049
343.58
37.7784
334.188
35.2543
325.442
34.7079
316.963
32.3833
309.518
29.5094
303.187
27.3799
295.636
30.0218
286.332
37.2186
279.041
34.4617
272.781
29.3585
266.05
25.7289
259.274
26.8578
252.934
29.4582
246.228
27.0341
239.93
19.8363
234.646
15.7109
229.94
17.4453
224.964
20.4237
219.412
23.3297
214.934
19.6833
211.241
15.3919
206.733
18.376
201.563
21.3756
195.853
21.596
190.166
24.2279
185.239
23.8694
181.208
18.8375
177.221
17.6116
172.817
20.2221
168.751
19.6276
163.629
21.1023
158.636
16.9303
155.098
10.3505
151.45
13.5119
147.563
17.0097
143.404
16.4221
140.177
13.73
137.642
11.9561
135.379
10.3963
131.936
13.6233
128.295
13.3049
126.134
9.19964
123.863
10.5315
121.233
12.2763
117.633
14.2707
114.599
10.4161
113.139
5.08709
110.959
7.89878
108.319
7.20368
106.335
5.42081
104.093
7.94344
100.976
11.0083
98.0446
11.3031
95.8459
6.70385
92.7659
9.7885
89.4553
12.5048
86.9818
12.7462
84.9491
11.9065
83.5247
8.40449
82.6677
7.58425
82.4421
6.04755
81.0709
8.49124
78.9106
7.23888
76.3429
9.76034
73.4317
11.4559
72.586
5.75898
72.1132
8.11666
71.2597
8.17531
71.0839
4.94627
70.9118
1.38587
69.6258
3.14696
67.7583
7.98586
66.0795
6.57289
62.7693
6.6715
59.8158
1.5348
58.13
0.51275
56.8909
4.99132
55.9245
5.38802
54.5985
6.20914
53.0128
4.62113
51.3907
3.56702
51.037
1.9077
51.6885
-0.257565
51.6053
2.82427
51.4136
3.30161
50.73
4.20355
49.0272
9.20819
47.577
6.72025
45.1352
8.95614
43.3172
6.39582
42.5999
-0.807593
41.0877
3.44187
40.3511
4.44738
40.1807
1.02636
39.6718
1.34975
38.4764
6.17493
37.325
5.06698
36.5277
2.48745
35.2836
4.60079
34.0835
2.69654
34.3906
-1.81
35.032
-1.92675
35.4247
0.654852
35.4471
3.50639
35.3934
4.7066
35.345
3.32802
34.3835
3.04169
33.1738
0.909425
32.771
-1.51406
32.4417
-0.990133
32.6221
0.103949
32.9436
3.5161
32.1701
7.09601
30.8802
6.6028
29.5848
3.6024
28.6343
2.35013
27.9242
1.20394
26.9743
2.98393
25.5339
5.14466
24.6654
2.55771
25.0119
0.432484