/*--------------------------------*- C++ -*----------------------------------*\
| =========                 |                                                 |
| \\      /  F ield         | OpenFOAM: The Open Source CFD Toolbox           |
|  \\    /   O peration     | Version:  v2012                                 |
|   \\  /    A nd           | Website:  www.openfoam.com                      |
|    \\/     M anipulation  |                                                 |
\*---------------------------------------------------------------------------*/
FoamFile
{
    version     2.0;
    format      ascii;
    class       volScalarField;
    location    "150";
    object      T;
}
// * * * * * * * * * * * * * * * * * * * * * * * * * * * * * * * * * * * * * //

dimensions      [0 0 0 1 0 0 0];


internalField   nonuniform List<scalar> 
65536
(
299.308
299.311
299.315
299.32
299.326
299.332
299.334
299.338
299.341
299.342
299.342
299.34
299.337
299.333
299.335
299.331
299.332
299.335
299.338
299.341
299.341
299.342
299.34
299.335
299.331
299.324
299.32
299.313
299.306
299.301
299.297
299.29
299.284
299.278
299.278
299.275
299.276
299.277
299.28
299.283
299.286
299.29
299.292
299.295
299.295
299.294
299.294
299.294
299.295
299.296
299.297
299.297
299.296
299.293
299.29
299.289
299.283
299.279
299.274
299.269
299.261
299.253
299.246
299.242
299.236
299.231
299.23
299.229
299.228
299.229
299.231
299.231
299.229
299.227
299.224
299.22
299.217
299.212
299.207
299.204
299.202
299.2
299.203
299.207
299.212
299.218
299.226
299.231
299.235
299.239
299.241
299.243
299.244
299.243
299.242
299.239
299.236
299.231
299.226
299.224
299.22
299.216
299.214
299.214
299.214
299.215
299.218
299.221
299.224
299.228
299.233
299.239
299.243
299.246
299.247
299.247
299.247
299.243
299.24
299.234
299.232
299.229
299.229
299.228
299.23
299.234
299.237
299.241
299.243
299.245
299.248
299.249
299.248
299.246
299.242
299.24
299.236
299.236
299.236
299.235
299.232
299.228
299.225
299.221
299.217
299.216
299.215
299.212
299.208
299.205
299.202
299.199
299.203
299.207
299.213
299.22
299.226
299.233
299.24
299.247
299.253
299.255
299.257
299.256
299.253
299.252
299.248
299.244
299.24
299.235
299.23
299.226
299.22
299.214
299.209
299.205
299.202
299.197
299.196
299.193
299.193
299.195
299.196
299.198
299.201
299.204
299.206
299.209
299.213
299.22
299.223
299.226
299.229
299.23
299.232
299.23
299.229
299.229
299.23
299.23
299.233
299.234
299.234
299.234
299.236
299.237
299.237
299.238
299.238
299.239
299.24
299.239
299.238
299.237
299.237
299.236
299.235
299.238
299.24
299.244
299.245
299.248
299.25
299.252
299.254
299.256
299.258
299.261
299.265
299.267
299.268
299.267
299.264
299.26
299.255
299.249
299.244
299.239
299.236
299.234
299.236
299.238
299.241
299.244
299.249
299.25
299.251
299.251
299.252
299.25
299.249
299.248
299.246
299.242
299.238
299.233
299.229
299.229
299.228
299.23
299.237
299.243
299.25
299.256
299.26
299.261
299.261
299.259
299.256
299.251
299.247
299.244
299.243
299.243
299.244
299.244
299.243
299.243
299.242
299.242
299.241
299.243
299.245
299.247
299.25
299.251
299.251
299.252
299.255
299.258
299.263
299.267
299.27
299.271
299.272
299.273
299.274
299.275
299.274
299.274
299.273
299.271
299.269
299.268
299.27
299.271
299.271
299.271
299.268
299.264
299.261
299.258
299.254
299.25
299.247
299.244
299.242
299.238
299.236
299.236
299.236
299.236
299.236
299.234
299.232
299.23
299.229
299.23
299.231
299.238
299.243
299.25
299.257
299.262
299.265
299.266
299.266
299.264
299.26
299.255
299.25
299.247
299.242
299.241
299.24
299.24
299.238
299.239
299.239
299.242
299.245
299.249
299.252
299.257
299.261
299.263
299.266
299.266
299.268
299.27
299.272
299.273
299.276
299.278
299.28
299.282
299.282
299.281
299.28
299.277
299.276
299.274
299.271
299.27
299.267
299.265
299.263
299.259
299.257
299.257
299.256
299.256
299.258
299.258
299.258
299.262
299.266
299.267
299.27
299.272
299.271
299.269
299.266
299.262
299.259
299.256
299.254
299.253
299.252
299.25
299.249
299.246
299.244
299.24
299.238
299.237
299.237
299.236
299.239
299.243
299.247
299.253
299.255
299.257
299.257
299.255
299.255
299.255
299.254
299.253
299.251
299.249
299.251
299.253
299.255
299.26
299.262
299.262
299.26
299.256
299.25
299.243
299.235
299.227
299.222
299.218
299.215
299.217
299.22
299.225
299.232
299.238
299.245
299.251
299.255
299.259
299.261
299.262
299.263
299.264
299.266
299.268
299.27
299.271
299.272
299.27
299.269
299.265
299.262
299.257
299.257
299.258
299.257
299.261
299.261
299.264
299.267
299.268
299.269
299.268
299.266
299.263
299.259
299.255
299.253
299.251
299.252
299.254
299.254
299.254
299.252
299.249
299.251
299.249
299.249
299.249
299.246
299.243
299.239
299.234
299.227
299.223
299.218
299.216
299.216
299.216
299.219
299.22
299.219
299.22
299.218
299.218
299.22
299.223
299.227
299.23
299.231
299.232
299.232
299.231
299.229
299.229
299.134
299.133
299.141
299.147
299.152
299.154
299.165
299.17
299.172
299.174
299.177
299.177
299.169
299.168
299.154
299.164
299.17
299.173
299.18
299.18
299.185
299.18
299.176
299.175
299.17
299.167
299.158
299.16
299.154
299.146
299.135
299.137
299.133
299.131
299.117
299.124
299.13
299.135
299.137
299.141
299.143
299.143
299.151
299.147
299.149
299.148
299.143
299.147
299.149
299.153
299.153
299.155
299.154
299.155
299.145
299.133
299.137
299.133
299.131
299.125
299.123
299.115
299.102
299.086
299.089
299.087
299.08
299.083
299.09
299.089
299.087
299.088
299.089
299.089
299.084
299.083
299.075
299.07
299.061
299.052
299.051
299.056
299.055
299.056
299.066
299.077
299.083
299.093
299.098
299.093
299.091
299.097
299.103
299.103
299.102
299.096
299.086
299.086
299.087
299.081
299.078
299.078
299.07
299.064
299.069
299.077
299.077
299.074
299.076
299.085
299.094
299.096
299.102
299.104
299.103
299.105
299.099
299.1
299.092
299.092
299.086
299.086
299.083
299.087
299.086
299.089
299.093
299.098
299.101
299.104
299.103
299.106
299.103
299.103
299.097
299.088
299.093
299.093
299.093
299.091
299.09
299.086
299.079
299.077
299.08
299.078
299.07
299.07
299.067
299.058
299.049
299.055
299.05
299.062
299.069
299.073
299.08
299.085
299.097
299.103
299.112
299.118
299.118
299.115
299.112
299.103
299.102
299.1
299.097
299.092
299.089
299.084
299.079
299.077
299.072
299.063
299.049
299.051
299.044
299.052
299.056
299.055
299.054
299.053
299.051
299.057
299.065
299.069
299.071
299.065
299.079
299.086
299.088
299.085
299.078
299.084
299.087
299.089
299.084
299.09
299.086
299.087
299.093
299.095
299.091
299.09
299.093
299.093
299.096
299.096
299.098
299.1
299.096
299.093
299.083
299.088
299.098
299.095
299.099
299.097
299.107
299.106
299.107
299.113
299.113
299.113
299.118
299.124
299.125
299.129
299.13
299.127
299.122
299.113
299.108
299.107
299.102
299.093
299.083
299.084
299.082
299.094
299.098
299.107
299.103
299.108
299.109
299.112
299.105
299.11
299.109
299.105
299.104
299.104
299.096
299.088
299.084
299.073
299.079
299.083
299.084
299.096
299.109
299.115
299.121
299.124
299.121
299.12
299.117
299.112
299.106
299.099
299.101
299.101
299.101
299.104
299.104
299.102
299.097
299.096
299.1
299.097
299.102
299.106
299.104
299.105
299.102
299.099
299.106
299.116
299.117
299.123
299.128
299.131
299.132
299.134
299.132
299.124
299.132
299.132
299.133
299.13
299.13
299.132
299.126
299.126
299.129
299.127
299.126
299.125
299.117
299.106
299.107
299.108
299.105
299.103
299.097
299.096
299.094
299.095
299.096
299.096
299.093
299.095
299.086
299.082
299.074
299.073
299.084
299.085
299.099
299.114
299.115
299.121
299.126
299.126
299.124
299.123
299.117
299.112
299.109
299.102
299.103
299.1
299.096
299.093
299.097
299.096
299.103
299.102
299.1
299.098
299.11
299.114
299.119
299.123
299.123
299.126
299.13
299.13
299.134
299.136
299.136
299.14
299.144
299.142
299.144
299.139
299.135
299.133
299.128
299.13
299.131
299.128
299.129
299.123
299.116
299.116
299.11
299.109
299.109
299.109
299.102
299.111
299.117
299.116
299.113
299.127
299.128
299.131
299.132
299.127
299.118
299.118
299.115
299.117
299.116
299.113
299.11
299.111
299.109
299.107
299.103
299.1
299.097
299.095
299.092
299.097
299.096
299.103
299.11
299.111
299.119
299.118
299.116
299.119
299.116
299.114
299.115
299.114
299.11
299.108
299.098
299.102
299.116
299.121
299.125
299.126
299.128
299.118
299.111
299.098
299.087
299.086
299.081
299.074
299.071
299.068
299.072
299.083
299.088
299.093
299.1
299.106
299.114
299.118
299.121
299.124
299.126
299.126
299.122
299.124
299.128
299.131
299.132
299.135
299.129
299.125
299.117
299.113
299.111
299.111
299.117
299.108
299.119
299.12
299.122
299.126
299.127
299.127
299.125
299.123
299.119
299.111
299.102
299.108
299.11
299.108
299.112
299.108
299.11
299.11
299.098
299.105
299.106
299.105
299.106
299.106
299.101
299.091
299.085
299.07
299.069
299.071
299.071
299.076
299.074
299.077
299.078
299.073
299.072
299.07
299.073
299.082
299.086
299.086
299.091
299.094
299.091
299.09
299.085
299.073
298.767
298.788
298.792
298.811
298.81
298.828
298.828
298.84
298.848
298.856
298.851
298.848
298.852
298.836
298.84
298.838
298.847
298.86
298.866
298.877
298.875
298.881
298.878
298.869
298.859
298.857
298.86
298.847
298.85
298.847
298.839
298.831
298.833
298.822
298.827
298.826
298.832
298.837
298.841
298.842
298.853
298.86
298.853
298.858
298.853
298.857
298.858
298.858
298.859
298.863
298.868
298.868
298.869
298.859
298.862
298.853
298.848
298.85
298.848
298.838
298.817
298.804
298.8
298.798
298.793
298.795
298.796
298.796
298.791
298.802
298.81
298.809
298.806
298.799
298.799
298.784
298.786
298.78
298.778
298.773
298.764
298.757
298.763
298.77
298.772
298.781
298.795
298.8
298.804
298.812
298.808
298.814
298.817
298.822
298.814
298.813
298.809
298.801
298.797
298.794
298.794
298.781
298.783
298.783
298.783
298.779
298.784
298.787
298.785
298.793
298.804
298.818
298.818
298.815
298.821
298.817
298.818
298.812
298.811
298.796
298.788
298.785
298.79
298.783
298.79
298.801
298.808
298.809
298.814
298.814
298.825
298.825
298.829
298.817
298.81
298.803
298.796
298.805
298.815
298.812
298.805
298.8
298.796
298.786
298.774
298.775
298.784
298.786
298.781
298.776
298.764
298.748
298.757
298.762
298.779
298.791
298.791
298.788
298.804
298.826
298.829
298.827
298.821
298.821
298.819
298.821
298.813
298.806
298.805
298.802
298.794
298.792
298.787
298.775
298.767
298.764
298.759
298.75
298.753
298.756
298.759
298.768
298.772
298.771
298.769
298.773
298.773
298.771
298.771
298.778
298.783
298.797
298.803
298.804
298.802
298.801
298.797
298.79
298.797
298.789
298.801
298.806
298.799
298.797
298.803
298.808
298.803
298.802
298.799
298.809
298.81
298.808
298.812
298.802
298.798
298.797
298.795
298.809
298.813
298.817
298.808
298.815
298.823
298.818
298.817
298.82
298.818
298.82
298.837
298.845
298.845
298.845
298.842
298.838
298.829
298.816
298.807
298.8
298.791
298.794
298.805
298.805
298.815
298.812
298.822
298.822
298.82
298.811
298.819
298.815
298.816
298.822
298.821
298.811
298.811
298.806
298.794
298.788
298.783
298.79
298.801
298.815
298.826
298.839
298.845
298.846
298.845
298.839
298.831
298.825
298.812
298.805
298.808
298.816
298.823
298.818
298.815
298.813
298.812
298.805
298.802
298.815
298.813
298.816
298.827
298.824
298.819
298.815
298.82
298.826
298.841
298.846
298.845
298.844
298.843
298.839
298.838
298.846
298.842
298.849
298.845
298.843
298.834
298.827
298.84
298.845
298.845
298.845
298.842
298.828
298.825
298.824
298.827
298.825
298.823
298.815
298.815
298.807
298.805
298.799
298.806
298.811
298.812
298.798
298.804
298.796
298.794
298.792
298.788
298.799
298.81
298.815
298.832
298.835
298.836
298.839
298.841
298.836
298.828
298.82
298.806
298.804
298.797
298.802
298.806
298.807
298.801
298.804
298.797
298.804
298.807
298.808
298.819
298.833
298.838
298.837
298.834
298.833
298.834
298.84
298.839
298.837
298.844
298.846
298.844
298.855
298.854
298.856
298.851
298.84
298.845
298.84
298.834
298.833
298.824
298.826
298.823
298.814
298.815
298.809
298.816
298.817
298.826
298.822
298.82
298.822
298.825
298.832
298.852
298.852
298.849
298.843
298.844
298.836
298.834
298.824
298.825
298.827
298.83
298.827
298.828
298.825
298.82
298.814
298.81
298.809
298.811
298.804
298.812
298.818
298.818
298.829
298.823
298.83
298.831
298.821
298.822
298.826
298.823
298.825
298.828
298.817
298.814
298.822
298.828
298.842
298.846
298.844
298.833
298.838
298.829
298.819
298.804
298.797
298.794
298.789
298.782
298.779
298.788
298.788
298.8
298.813
298.819
298.824
298.825
298.83
298.837
298.832
298.829
298.826
298.834
298.837
298.845
298.847
298.844
298.84
298.844
298.836
298.823
298.802
298.813
298.822
298.814
298.825
298.822
298.837
298.843
298.844
298.843
298.841
298.838
298.834
298.826
298.818
298.812
298.808
298.814
298.827
298.826
298.83
298.821
298.808
298.819
298.811
298.815
298.82
298.817
298.815
298.808
298.806
298.789
298.781
298.78
298.777
298.782
298.779
298.79
298.789
298.788
298.79
298.78
298.77
298.787
298.79
298.797
298.804
298.805
298.807
298.816
298.811
298.801
298.798
298.293
298.296
298.323
298.33
298.355
298.344
298.365
298.37
298.382
298.385
298.401
298.391
298.375
298.373
298.34
298.383
298.407
298.427
298.436
298.437
298.442
298.431
298.429
298.441
298.44
298.435
298.428
298.443
298.438
298.426
298.39
298.429
298.429
298.419
298.376
298.423
298.447
298.459
298.459
298.454
298.453
298.458
298.477
298.467
298.468
298.458
298.445
298.465
298.477
298.475
298.479
298.489
298.486
298.489
298.459
298.418
298.452
298.458
298.457
298.455
298.448
298.43
298.41
298.367
298.411
298.41
298.379
298.404
298.418
298.425
298.428
298.429
298.429
298.43
298.419
298.416
298.41
298.404
298.387
298.361
298.364
298.365
298.357
298.351
298.376
298.386
298.409
298.431
298.436
298.414
298.382
298.423
298.441
298.438
298.441
298.416
298.391
298.41
298.42
298.418
298.409
298.41
298.391
298.36
298.394
298.414
298.415
298.4
298.37
298.409
298.429
298.431
298.439
298.44
298.434
298.429
298.43
298.427
298.406
298.397
298.401
298.399
298.388
298.387
298.377
298.403
298.426
298.438
298.431
298.436
298.43
298.438
298.432
298.434
298.411
298.37
298.39
298.415
298.42
298.432
298.434
298.413
298.388
298.393
298.391
298.396
298.396
298.398
298.398
298.374
298.339
298.356
298.33
298.379
298.4
298.404
298.4
298.364
298.419
298.436
298.454
298.459
298.459
298.448
298.436
298.422
298.42
298.424
298.423
298.42
298.421
298.411
298.4
298.394
298.397
298.379
298.335
298.362
298.329
298.373
298.383
298.394
298.392
298.375
298.348
298.372
298.383
298.376
298.378
298.347
298.404
298.422
298.429
298.413
298.372
298.402
298.414
298.414
298.401
298.407
298.405
298.408
298.419
298.41
298.413
298.417
298.426
298.418
298.429
298.424
298.428
298.437
298.426
298.413
298.365
298.397
298.408
298.42
298.427
298.424
298.43
298.436
298.434
298.445
298.442
298.433
298.42
298.444
298.456
298.469
298.475
298.469
298.46
298.439
298.424
298.435
298.433
298.408
298.362
298.393
298.379
298.418
298.428
298.435
298.43
298.434
298.434
298.436
298.425
298.432
298.435
298.434
298.436
298.439
298.429
298.41
298.388
298.35
298.388
298.392
298.371
298.416
298.45
298.464
298.469
298.471
298.469
298.465
298.46
298.449
298.435
298.395
298.424
298.44
298.433
298.437
298.434
298.432
298.424
298.424
298.423
298.417
298.43
298.439
298.433
298.434
298.417
298.379
298.42
298.443
298.444
298.452
298.462
298.46
298.448
298.46
298.454
298.429
298.458
298.464
298.467
298.457
298.451
298.448
298.444
298.45
298.461
298.464
298.458
298.457
298.438
298.398
298.425
298.442
298.444
298.436
298.425
298.415
298.392
298.416
298.432
298.432
298.428
298.433
298.411
298.402
298.366
298.356
298.384
298.371
298.419
298.449
298.456
298.462
298.463
298.457
298.457
298.457
298.442
298.418
298.421
298.415
298.411
298.413
298.418
298.408
298.404
298.411
298.428
298.429
298.422
298.383
298.434
298.451
298.457
298.455
298.447
298.441
298.453
298.455
298.455
298.46
298.465
298.471
298.48
298.476
298.478
298.469
298.459
298.45
298.442
298.447
298.448
298.452
298.453
298.44
298.428
298.421
298.397
298.421
298.425
298.425
298.401
298.423
298.427
298.432
298.397
298.452
298.461
298.473
298.47
298.456
298.421
298.435
298.438
298.445
298.444
298.449
298.448
298.45
298.452
298.45
298.434
298.407
298.42
298.425
298.415
298.413
298.416
298.427
298.444
298.445
298.45
298.453
298.446
298.437
298.42
298.437
298.456
298.459
298.446
298.429
298.378
298.409
298.452
298.469
298.48
298.478
298.476
298.465
298.459
298.434
298.386
298.415
298.418
298.4
298.378
298.382
298.389
298.41
298.413
298.414
298.426
298.433
298.45
298.459
298.454
298.455
298.448
298.441
298.418
298.441
298.451
298.466
298.474
298.465
298.466
298.463
298.437
298.374
298.424
298.432
298.43
298.403
298.437
298.445
298.449
298.457
298.452
298.446
298.46
298.464
298.452
298.425
298.384
298.419
298.431
298.435
298.447
298.44
298.439
298.431
298.4
298.433
298.442
298.438
298.442
298.438
298.436
298.422
298.404
298.347
298.372
298.383
298.386
298.395
298.397
298.409
298.41
298.398
298.385
298.34
298.384
298.414
298.423
298.42
298.425
298.434
298.429
298.429
298.415
298.363
297.618
297.682
297.741
297.738
297.754
297.765
297.788
297.792
297.826
297.831
297.835
297.845
297.837
297.813
297.751
297.83
297.871
297.883
297.914
297.926
297.925
297.932
297.93
297.911
297.91
297.92
297.923
297.914
297.949
297.961
297.899
297.945
297.954
297.917
297.866
297.942
297.975
297.985
297.983
297.956
297.995
298.008
297.988
297.982
297.975
297.997
297.957
298.003
298.01
298.022
298.021
298.03
298.042
298.024
298.016
297.945
298.007
298.026
298.026
298.003
297.954
297.92
297.933
297.896
297.964
297.98
297.932
297.966
297.936
297.976
297.987
297.982
297.986
297.979
297.963
297.928
297.951
297.938
297.941
297.883
297.893
297.876
297.9
297.861
297.902
297.888
297.953
297.974
297.981
297.985
297.93
297.989
298.006
298.01
297.99
297.976
297.908
297.942
297.956
297.951
297.961
297.932
297.949
297.901
297.945
297.941
297.962
297.963
297.927
297.97
297.978
297.979
297.978
297.965
297.974
297.977
297.953
297.962
297.951
297.901
297.915
297.932
297.934
297.9
297.871
297.947
297.973
297.983
297.977
297.948
297.968
297.983
297.994
297.985
297.968
297.891
297.894
297.961
297.991
297.99
297.977
297.965
297.908
297.927
297.88
297.901
297.917
297.951
297.956
297.941
297.874
297.878
297.857
297.908
297.943
297.953
297.959
297.919
297.974
298.005
298.007
297.994
297.966
297.977
297.974
297.954
297.938
297.928
297.953
297.963
297.96
297.964
297.954
297.901
297.909
297.931
297.882
297.92
297.881
297.929
297.905
297.953
297.958
297.945
297.896
297.938
297.938
297.889
297.925
297.876
297.937
297.977
297.987
297.977
297.908
297.953
297.95
297.923
297.941
297.906
297.953
297.96
297.943
297.904
297.933
297.957
297.958
297.961
297.936
297.96
297.963
297.972
297.986
297.967
297.897
297.925
297.903
297.963
297.974
297.957
297.934
297.969
297.986
297.973
297.963
297.955
297.901
297.949
298
298.021
298.022
298.009
298.003
297.99
297.942
297.973
297.976
297.963
297.911
297.953
297.916
297.977
297.98
297.961
297.974
297.981
297.969
297.932
297.941
297.954
297.947
297.981
297.99
297.973
297.978
297.97
297.941
297.872
297.918
297.939
297.904
297.974
298
298.025
298.038
298.034
298.017
298.013
297.997
298.008
297.991
297.955
297.988
297.986
297.995
297.992
297.983
297.978
297.974
297.95
297.93
297.959
297.957
297.978
298
297.991
297.973
297.91
297.967
297.989
298.002
298.014
298.014
298.005
297.962
297.994
297.99
297.942
297.992
298.02
298.016
297.998
297.963
297.936
297.978
297.99
298.004
298.01
298.002
297.967
297.977
297.933
297.994
298.002
298
297.996
297.986
297.965
297.9
297.954
297.968
297.985
297.983
297.949
297.966
297.947
297.885
297.876
297.941
297.912
297.978
297.978
297.999
297.993
297.994
297.979
298.009
298.008
297.984
297.926
297.926
297.936
297.903
297.948
297.958
297.949
297.906
297.938
297.925
297.967
297.978
297.932
297.995
298.021
298.019
297.995
297.974
297.94
297.98
297.995
297.992
297.972
297.994
298.005
297.991
298.022
298.03
298.026
298.001
297.951
297.969
297.983
297.951
297.974
297.95
297.968
297.945
297.943
297.895
297.941
297.97
297.963
297.922
297.965
297.937
297.976
297.937
298.002
298.026
298.035
298.034
298.008
297.943
297.983
297.991
297.989
297.998
297.998
298.002
298.006
298.011
298.004
297.986
297.911
297.961
297.972
297.952
297.918
297.946
297.971
297.987
297.998
297.96
298.005
298
297.943
297.914
297.98
297.982
298
298.011
297.99
297.916
297.938
298
298.038
298.044
298.032
297.992
298.022
298.019
298.002
297.942
297.99
297.986
297.961
297.9
297.904
297.931
297.943
297.96
297.966
297.966
297.97
297.98
297.989
298.002
297.994
297.972
297.96
297.913
297.981
298.014
298.021
298.01
297.969
298.02
298.021
297.999
297.943
297.983
297.984
297.949
297.91
297.971
297.997
298.001
298.003
298.004
297.961
297.999
298.004
297.992
297.969
297.913
297.956
297.973
297.984
297.988
297.991
297.978
297.93
297.906
297.959
297.978
297.989
297.984
297.983
297.984
297.984
297.952
297.883
297.92
297.896
297.928
297.905
297.952
297.952
297.941
297.944
297.944
297.899
297.954
297.963
297.966
297.965
297.961
297.981
297.999
297.999
297.979
297.9
296.832
296.976
297.018
297.078
297.062
297.053
297.061
297.124
297.109
297.156
297.156
297.178
297.122
297.198
297.212
297.244
297.257
297.296
297.301
297.306
297.308
297.266
297.263
297.327
297.326
297.348
297.316
297.319
297.405
297.432
297.456
297.457
297.437
297.366
297.43
297.451
297.471
297.489
297.482
297.433
297.46
297.447
297.475
297.413
297.418
297.493
297.526
297.515
297.513
297.477
297.468
297.516
297.52
297.515
297.491
297.528
297.511
297.492
297.489
297.493
297.422
297.401
297.432
297.505
297.523
297.537
297.528
297.494
297.427
297.48
297.482
297.452
297.475
297.478
297.47
297.419
297.459
297.419
297.462
297.455
297.389
297.371
297.39
297.398
297.42
297.385
297.451
297.484
297.499
297.479
297.516
297.513
297.515
297.489
297.492
297.454
297.476
297.427
297.466
297.423
297.459
297.421
297.477
297.505
297.491
297.438
297.485
297.485
297.493
297.493
297.486
297.442
297.475
297.429
297.451
297.434
297.399
297.458
297.419
297.399
297.411
297.423
297.39
297.353
297.375
297.448
297.493
297.495
297.475
297.407
297.425
297.474
297.458
297.492
297.476
297.478
297.428
297.48
297.465
297.491
297.496
297.478
297.449
297.44
297.369
297.361
297.365
297.438
297.468
297.444
297.456
297.415
297.449
297.417
297.462
297.429
297.489
297.509
297.496
297.488
297.506
297.49
297.436
297.462
297.438
297.389
297.374
297.375
297.439
297.433
297.452
297.44
297.445
297.406
297.404
297.469
297.5
297.497
297.501
297.475
297.43
297.483
297.487
297.453
297.463
297.432
297.441
297.415
297.453
297.483
297.454
297.488
297.513
297.498
297.507
297.456
297.469
297.404
297.411
297.377
297.42
297.415
297.45
297.39
297.394
297.438
297.456
297.425
297.403
297.445
297.421
297.474
297.48
297.498
297.485
297.417
297.392
297.458
297.471
297.412
297.404
297.46
297.449
297.46
297.432
297.45
297.399
297.416
297.487
297.524
297.527
297.48
297.498
297.466
297.463
297.492
297.491
297.466
297.501
297.513
297.525
297.512
297.487
297.42
297.428
297.464
297.452
297.375
297.385
297.452
297.435
297.475
297.489
297.458
297.479
297.455
297.425
297.451
297.413
297.467
297.484
297.467
297.514
297.53
297.535
297.528
297.488
297.508
297.467
297.517
297.53
297.514
297.514
297.505
297.464
297.478
297.453
297.475
297.471
297.445
297.403
297.456
297.46
297.494
297.481
297.5
297.474
297.494
297.462
297.477
297.449
297.477
297.513
297.52
297.486
297.522
297.511
297.477
297.517
297.529
297.525
297.486
297.421
297.387
297.446
297.441
297.494
297.507
297.492
297.426
297.492
297.511
297.493
297.513
297.499
297.484
297.468
297.47
297.433
297.446
297.483
297.484
297.467
297.411
297.432
297.48
297.495
297.499
297.473
297.508
297.507
297.47
297.51
297.473
297.501
297.485
297.51
297.519
297.497
297.438
297.397
297.423
297.386
297.423
297.455
297.417
297.396
297.424
297.377
297.465
297.51
297.539
297.523
297.532
297.525
297.474
297.45
297.436
297.482
297.473
297.463
297.45
297.503
297.497
297.45
297.497
297.504
297.512
297.487
297.41
297.416
297.478
297.446
297.485
297.43
297.477
297.468
297.471
297.431
297.434
297.476
297.494
297.481
297.494
297.465
297.531
297.553
297.538
297.496
297.533
297.533
297.515
297.501
297.485
297.457
297.454
297.455
297.476
297.466
297.485
297.506
297.523
297.501
297.436
297.45
297.476
297.421
297.399
297.407
297.434
297.481
297.494
297.452
297.514
297.508
297.45
297.437
297.481
297.468
297.517
297.523
297.515
297.534
297.521
297.549
297.558
297.556
297.531
297.461
297.524
297.544
297.528
297.541
297.527
297.514
297.483
297.439
297.435
297.41
297.445
297.428
297.413
297.429
297.42
297.472
297.487
297.495
297.486
297.432
297.467
297.434
297.478
297.477
297.517
297.521
297.467
297.528
297.543
297.543
297.552
297.529
297.5
297.443
297.476
297.49
297.484
297.458
297.501
297.5
297.478
297.52
297.528
297.51
297.471
297.473
297.466
297.445
297.444
297.481
297.459
297.486
297.43
297.482
297.493
297.48
297.461
297.466
297.448
297.467
297.479
297.48
297.473
297.417
297.39
297.434
297.4
297.437
297.463
297.435
297.43
297.471
297.486
297.454
297.474
297.46
297.42
297.412
297.478
297.488
297.517
297.526
297.541
296.111
296.241
296.263
296.298
296.246
296.212
296.284
296.306
296.357
296.358
296.422
296.398
296.342
296.479
296.544
296.539
296.57
296.577
296.597
296.627
296.625
296.542
296.546
296.673
296.724
296.757
296.717
296.802
296.836
296.886
296.905
296.9
296.888
296.819
296.897
296.909
296.924
296.918
296.924
296.933
296.931
296.866
296.891
296.869
296.915
296.978
297.004
296.991
296.952
296.893
296.905
296.965
296.986
296.92
296.916
297.001
297.006
296.949
296.947
296.999
296.973
296.994
296.978
297.034
297.047
297.062
297.069
297.032
296.944
296.978
296.971
296.915
296.946
296.931
296.942
296.968
296.97
296.944
296.985
296.989
296.919
296.925
296.894
296.937
296.94
296.897
296.94
296.925
296.933
296.922
297.001
297.011
296.996
296.93
296.955
296.904
296.969
296.922
296.95
296.935
296.981
296.955
296.998
297.011
296.974
296.987
296.956
296.95
296.993
296.99
296.936
296.905
296.95
296.928
296.916
296.89
296.893
296.943
296.897
296.918
296.922
296.925
296.861
296.853
296.928
296.937
296.983
296.983
296.957
296.921
296.904
296.942
296.909
296.942
296.949
297.006
297.012
296.954
296.914
296.937
296.944
296.969
296.969
296.978
296.971
296.931
296.873
296.906
296.956
296.94
297.017
297.023
297.005
296.949
296.948
296.921
296.985
296.998
296.941
296.923
296.972
296.94
296.953
296.949
296.896
296.86
296.861
296.887
296.927
296.896
296.919
296.907
296.966
296.991
297.006
296.976
297.024
296.988
297.026
296.973
297.016
296.999
296.978
296.95
296.988
296.928
296.93
296.996
296.999
297.022
296.986
296.962
296.998
296.981
297.015
296.948
296.955
296.958
296.902
296.943
296.908
296.878
296.923
296.954
296.906
296.901
296.926
296.892
296.919
296.93
296.883
296.915
296.938
296.999
297.025
296.957
297.002
296.952
296.967
296.91
296.919
296.937
296.893
296.905
296.91
296.943
296.973
296.972
296.956
297.005
297.008
296.962
296.958
296.913
296.953
296.969
296.945
296.938
297.015
297.03
297.047
297.017
296.961
296.902
296.895
296.945
296.931
296.871
296.869
296.935
296.966
296.954
296.992
296.986
296.961
296.92
296.895
296.963
296.91
296.964
296.975
296.921
296.95
296.981
297.013
297.013
296.972
296.992
296.959
297.009
297.011
297.031
297.003
296.945
296.912
296.95
296.914
296.932
296.976
296.954
296.916
296.972
296.977
296.971
296.935
296.97
296.939
296.975
296.936
296.955
296.895
296.914
296.971
297.006
297.016
297.004
297.001
296.953
296.969
297.01
296.993
296.947
296.921
296.93
296.923
296.896
296.947
296.951
296.959
296.918
296.993
297.013
296.957
296.992
296.971
296.97
296.948
296.985
296.984
296.941
296.945
296.962
296.957
296.948
296.903
296.956
297.013
297.025
296.96
297.032
297.034
297.025
297.006
296.975
296.982
296.976
296.998
296.996
296.985
296.935
296.912
296.91
296.956
296.929
296.937
296.911
296.946
296.915
296.875
296.929
297.019
297.054
297.035
297.041
297.033
297.009
296.972
296.976
296.94
296.893
296.894
296.957
296.971
296.97
296.938
296.98
296.942
296.989
296.963
296.901
296.904
296.993
297.017
296.98
297.01
296.965
296.964
296.973
296.982
296.952
296.99
296.996
297.006
297.018
297.047
297.037
297.048
297.001
296.941
296.985
297.018
297.016
296.98
296.971
296.926
296.939
296.904
296.942
296.905
296.941
296.989
297
297.018
297.033
296.978
296.998
296.939
296.962
296.917
296.911
296.926
296.986
297.039
297.034
297.029
297.013
297.024
297.014
296.99
296.978
297.008
296.99
297.051
297.043
297.033
297.058
297.052
297.02
296.957
297.009
297.015
296.996
297.049
297.044
297.022
296.981
296.973
296.943
296.888
296.906
296.884
296.854
296.865
296.858
296.901
296.897
296.951
296.952
296.9
296.94
296.975
296.949
296.922
296.981
296.988
297.039
297.026
297
297.002
297
297.004
296.974
296.943
296.977
296.944
296.943
296.897
296.943
296.994
297.004
296.99
296.974
296.96
296.954
296.979
296.93
296.907
296.903
296.948
296.921
296.984
297.024
297.009
296.949
296.91
296.894
296.929
296.896
296.906
296.964
296.946
296.993
296.92
296.915
296.961
296.972
296.927
296.962
296.942
296.932
296.974
296.972
296.909
296.939
296.908
296.891
296.893
296.941
296.942
296.998
297.035
297.065
295.424
295.404
295.472
295.412
295.402
295.336
295.435
295.462
295.425
295.413
295.576
295.614
295.605
295.683
295.802
295.786
295.789
295.8
295.859
295.868
295.905
295.949
295.984
295.988
296.062
296.131
296.175
296.187
296.206
296.213
296.284
296.291
296.304
296.251
296.328
296.338
296.347
296.313
296.325
296.382
296.369
296.416
296.353
296.417
296.442
296.467
296.485
296.466
296.41
296.387
296.389
296.423
296.406
296.354
296.396
296.474
296.482
296.483
296.49
296.503
296.518
296.534
296.501
296.542
296.537
296.531
296.558
296.527
296.441
296.456
296.414
296.378
296.409
296.397
296.416
296.459
296.481
296.507
296.474
296.502
296.488
296.435
296.481
296.484
296.456
296.404
296.418
296.385
296.373
296.412
296.481
296.46
296.469
296.412
296.419
296.424
296.482
296.479
296.447
296.492
296.471
296.491
296.486
296.499
296.426
296.479
296.414
296.427
296.48
296.468
296.406
296.414
296.463
296.463
296.428
296.415