/*--------------------------------*- C++ -*----------------------------------*\
| =========                 |                                                 |
| \\      /  F ield         | OpenFOAM: The Open Source CFD Toolbox           |
|  \\    /   O peration     | Version:  v2012                                 |
|   \\  /    A nd           | Website:  www.openfoam.com                      |
|    \\/     M anipulation  |                                                 |
\*---------------------------------------------------------------------------*/
FoamFile
{
    version     2.0;
    format      ascii;
    class       volScalarField;
    location    "150";
    object      theta;
}
// * * * * * * * * * * * * * * * * * * * * * * * * * * * * * * * * * * * * * //

dimensions      [0 0 0 1 0 0 0];


internalField   nonuniform List<scalar> 
65536
(
-0.447234
-0.443682
-0.439472
-0.434939
-0.428841
-0.422497
-0.420347
-0.417122
-0.414163
-0.412977
-0.413162
-0.414902
-0.417992
-0.421833
-0.419689
-0.423557
-0.42256
-0.41973
-0.416867
-0.413822
-0.413574
-0.412869
-0.415197
-0.42024
-0.424168
-0.430371
-0.434619
-0.442217
-0.448261
-0.453748
-0.457572
-0.464946
-0.470554
-0.476306
-0.476629
-0.479402
-0.479084
-0.477456
-0.474285
-0.471934
-0.468826
-0.46466
-0.462962
-0.45976
-0.459755
-0.460834
-0.460258
-0.460976
-0.459554
-0.45902
-0.457481
-0.457327
-0.458488
-0.461761
-0.464315
-0.466197
-0.472052
-0.475374
-0.4805
-0.486143
-0.494114
-0.501975
-0.508395
-0.512549
-0.519223
-0.523371
-0.524539
-0.525955
-0.526992
-0.525619
-0.524054
-0.523989
-0.525697
-0.528005
-0.530405
-0.534252
-0.53812
-0.543027
-0.547358
-0.550511
-0.553176
-0.555095
-0.552194
-0.547758
-0.542338
-0.536376
-0.528516
-0.52339
-0.519432
-0.515562
-0.513296
-0.512208
-0.511198
-0.511371
-0.512954
-0.516188
-0.519247
-0.524064
-0.528353
-0.530839
-0.534607
-0.538967
-0.540625
-0.540954
-0.540426
-0.539455
-0.53659
-0.53368
-0.530941
-0.52667
-0.521834
-0.515801
-0.512083
-0.508856
-0.50777
-0.507471
-0.507641
-0.511487
-0.51472
-0.520427
-0.522654
-0.525352
-0.5262
-0.526659
-0.524685
-0.520991
-0.51731
-0.513979
-0.511573
-0.509412
-0.506792
-0.506174
-0.506408
-0.509134
-0.512672
-0.51458
-0.518457
-0.518676
-0.519224
-0.519855
-0.522697
-0.526429
-0.530022
-0.533399
-0.537338
-0.539221
-0.539464
-0.542696
-0.546384
-0.549885
-0.55246
-0.555594
-0.55194
-0.548128
-0.54197
-0.534768
-0.529024
-0.521769
-0.51517
-0.507363
-0.50202
-0.499359
-0.497932
-0.498936
-0.501528
-0.503121
-0.506812
-0.510414
-0.515038
-0.519519
-0.524272
-0.529206
-0.534342
-0.54027
-0.545362
-0.549571
-0.552331
-0.55778
-0.558918
-0.561282
-0.561326
-0.559672
-0.55833
-0.556823
-0.553686
-0.550971
-0.548252
-0.545353
-0.54128
-0.534427
-0.531787
-0.528784
-0.525988
-0.524436
-0.523072
-0.524841
-0.525854
-0.526115
-0.524442
-0.524748
-0.521835
-0.520253
-0.520417
-0.520625
-0.518738
-0.518166
-0.517973
-0.516909
-0.516269
-0.51584
-0.515194
-0.51584
-0.516635
-0.518229
-0.517763
-0.51908
-0.519593
-0.516433
-0.514283
-0.511094
-0.510242
-0.50713
-0.504376
-0.503093
-0.500599
-0.498285
-0.496538
-0.493389
-0.489739
-0.487494
-0.486738
-0.487507
-0.490679
-0.494693
-0.500084
-0.505888
-0.511023
-0.515407
-0.518255
-0.52041
-0.518534
-0.517096
-0.513431
-0.510848
-0.506093
-0.504865
-0.503813
-0.50421
-0.502526
-0.504444
-0.505687
-0.506431
-0.508589
-0.512925
-0.516721
-0.521553
-0.52615
-0.526234
-0.527185
-0.52476
-0.518179
-0.512143
-0.50518
-0.49877
-0.494822
-0.493471
-0.493425
-0.495932
-0.499237
-0.503461
-0.507712
-0.51056
-0.511878
-0.511536
-0.510739
-0.510869
-0.511638
-0.512167
-0.512566
-0.51263
-0.513613
-0.511567
-0.509751
-0.50763
-0.505079
-0.504237
-0.503601
-0.502448
-0.500091
-0.49703
-0.491933
-0.487892
-0.485231
-0.483325
-0.482661
-0.482027
-0.481122
-0.479528
-0.480947
-0.481003
-0.481967
-0.483505
-0.485332
-0.486421
-0.48462
-0.48338
-0.483667
-0.484004
-0.486298
-0.490328
-0.493787
-0.496323
-0.500654
-0.504263
-0.507323
-0.510383
-0.512954
-0.516349
-0.51854
-0.518586
-0.518501
-0.518284
-0.518537
-0.520891
-0.522272
-0.524833
-0.525322
-0.524697
-0.52384
-0.516989
-0.511358
-0.505246
-0.497412
-0.492325
-0.490126
-0.488862
-0.48835
-0.490489
-0.49436
-0.500236
-0.505005
-0.507979
-0.512265
-0.514185
-0.514918
-0.515181
-0.517183
-0.516224
-0.515756
-0.513177
-0.510117
-0.505695
-0.502692
-0.497501
-0.493722
-0.491575
-0.489116
-0.488408
-0.486854
-0.484642
-0.483112
-0.481466
-0.478665
-0.47677
-0.475235
-0.47315
-0.473231
-0.473359
-0.475118
-0.477328
-0.47853
-0.481019
-0.483344
-0.484341
-0.487303
-0.489654
-0.491987
-0.495526
-0.497517
-0.49793
-0.499123
-0.498925
-0.496742
-0.497247
-0.496369
-0.492978
-0.488709
-0.487467
-0.484331
-0.482633
-0.48366
-0.486002
-0.488984
-0.493076
-0.495656
-0.498851
-0.500902
-0.502066
-0.502916
-0.504432
-0.506008
-0.50861
-0.511203
-0.514765
-0.516518
-0.518069
-0.518233
-0.518903
-0.515385
-0.51202
-0.507401
-0.502245
-0.500116
-0.497513
-0.497368
-0.499335
-0.500042
-0.499612
-0.500471
-0.502228
-0.503831
-0.505491
-0.503592
-0.501841
-0.499482
-0.494961
-0.492306
-0.492308
-0.495033
-0.498524
-0.50492
-0.512052
-0.519664
-0.527453
-0.532888
-0.537136
-0.539928
-0.538046
-0.535196
-0.530217
-0.523244
-0.516427
-0.51004
-0.503981
-0.499782
-0.495813
-0.493735
-0.492389
-0.492104
-0.490894
-0.488916
-0.486261
-0.484485
-0.483317
-0.482858
-0.484845
-0.486116
-0.489538
-0.493207
-0.497288
-0.497564
-0.497059
-0.497791
-0.493821
-0.493321
-0.490616
-0.487873
-0.486669
-0.486184
-0.487105
-0.488324
-0.491388
-0.495888
-0.499877
-0.501645
-0.503748
-0.50272
-0.500664
-0.50068
-0.500414
-0.502979
-0.505396
-0.503961
-0.505746
-0.50559
-0.505977
-0.508624
-0.512052
-0.515632
-0.520606
-0.527382
-0.531318
-0.536744
-0.539197
-0.538964
-0.538289
-0.535473
-0.534962
-0.535335
-0.535141
-0.536452
-0.536618
-0.534363
-0.531315
-0.52824
-0.524694
-0.523576
-0.523005
-0.522699
-0.524008
-0.526073
-0.525539
-0.130533
-0.131683
-0.123528
-0.117703
-0.112058
-0.110361
-0.099342
-0.094108
-0.0922549
-0.0897787
-0.0873465
-0.087721
-0.0949961
-0.0958317
-0.109976
-0.10013
-0.0947095
-0.0909323
-0.0845194
-0.0838447
-0.0793607
-0.0844761
-0.0879017
-0.0896264
-0.094155
-0.0972996
-0.106526
-0.10448
-0.110176
-0.117778
-0.129235
-0.127001
-0.13136
-0.132996
-0.147071
-0.139844
-0.134253
-0.128938
-0.12749
-0.123274
-0.121403
-0.121139
-0.113582
-0.117554
-0.115246
-0.116319
-0.121295
-0.117631
-0.115473
-0.111081
-0.111124
-0.109591
-0.109867
-0.10885
-0.119561
-0.131054
-0.127131
-0.13114
-0.13336
-0.138913
-0.141522
-0.149109
-0.162129
-0.178316
-0.175019
-0.17707
-0.184207
-0.181175
-0.173792
-0.174751
-0.177011
-0.176532
-0.175168
-0.175019
-0.180743
-0.181586
-0.189077
-0.194019
-0.203145
-0.212505
-0.213613
-0.207805
-0.209182
-0.207969
-0.197764
-0.187563
-0.181606
-0.171165
-0.166713
-0.171532
-0.173098
-0.167053
-0.161733
-0.160976
-0.162494
-0.168447
-0.177952
-0.178236
-0.177716
-0.182829
-0.186556
-0.186371
-0.194402
-0.200069
-0.195525
-0.187201
-0.187113
-0.189763
-0.187869
-0.179548
-0.170038
-0.168578
-0.162068
-0.16016
-0.16103
-0.159459
-0.164992
-0.16397
-0.172166
-0.171982
-0.177991
-0.178067
-0.180964
-0.177001
-0.177903
-0.175313
-0.170915
-0.166426
-0.162902
-0.159782
-0.161476
-0.157795
-0.160931
-0.160893
-0.166962
-0.176376
-0.170969
-0.170943
-0.170889
-0.172957
-0.174298
-0.178093
-0.185626
-0.186846
-0.183856
-0.186259
-0.193998
-0.194418
-0.197612
-0.206487
-0.214851
-0.209094
-0.214106
-0.202394
-0.195037
-0.191046
-0.183816
-0.179357
-0.166937
-0.161156
-0.15195
-0.146586
-0.1465
-0.149319
-0.151853
-0.16076
-0.16198
-0.164491
-0.167262
-0.171823
-0.17538
-0.180598
-0.185485
-0.187458
-0.192157
-0.201708
-0.214936
-0.212856
-0.220071
-0.2124
-0.207758
-0.208784
-0.209929
-0.21114
-0.213032
-0.20719
-0.199436
-0.194881
-0.193223
-0.199087
-0.185083
-0.177948
-0.176477
-0.179353
-0.18589
-0.180607
-0.177038
-0.175309
-0.18057
-0.173998
-0.178108
-0.177714
-0.171545
-0.169111
-0.173484
-0.1744
-0.171613
-0.171124
-0.168639
-0.167823
-0.166153
-0.163977
-0.168701
-0.171668
-0.181461
-0.176137
-0.166672
-0.168862
-0.165538
-0.166825
-0.157402
-0.157824
-0.157534
-0.151502
-0.151262
-0.151731
-0.146293
-0.140113
-0.139201
-0.135668
-0.134294
-0.137533
-0.142362
-0.150832
-0.156476
-0.157363
-0.162267
-0.171589
-0.181206
-0.18014
-0.182369
-0.170583
-0.166331
-0.157558
-0.160789
-0.156576
-0.155638
-0.15218
-0.159103
-0.154506
-0.154962
-0.158838
-0.160628
-0.160034
-0.168326
-0.175776
-0.180091
-0.191513
-0.185124
-0.181239
-0.180624
-0.16844
-0.155716
-0.149192
-0.143731
-0.140655
-0.143484
-0.143792
-0.147042
-0.152749
-0.158276
-0.165209
-0.163656
-0.16293
-0.163281
-0.160587
-0.16011
-0.16252
-0.166976
-0.16857
-0.164171
-0.166954
-0.162356
-0.158333
-0.160032
-0.159451
-0.162445
-0.164932
-0.157856
-0.14812
-0.146944
-0.141709
-0.135803
-0.133541
-0.132291
-0.130479
-0.132604
-0.139881
-0.132407
-0.132416
-0.131607
-0.13442
-0.134371
-0.132556
-0.138481
-0.138285
-0.135058
-0.136955
-0.138615
-0.139415
-0.14731
-0.157969
-0.157171
-0.156418
-0.159155
-0.160766
-0.167174
-0.167914
-0.170666
-0.169189
-0.16859
-0.168286
-0.170926
-0.168839
-0.177921
-0.182177
-0.190606
-0.191435
-0.180147
-0.179565
-0.165084
-0.150489
-0.148799
-0.143345
-0.138392
-0.137997
-0.139778
-0.141321
-0.146755
-0.151817
-0.15507
-0.162415
-0.161044
-0.164125
-0.168072
-0.171409
-0.166882
-0.1679
-0.161535
-0.162377
-0.163909
-0.16589
-0.154534
-0.14991
-0.144978
-0.141289
-0.14113
-0.138193
-0.134539
-0.134132
-0.130741
-0.127808
-0.128215
-0.124448
-0.120042
-0.122197
-0.12022
-0.125459
-0.129069
-0.130931
-0.136504
-0.13465
-0.133537
-0.136385
-0.135312
-0.141225
-0.148353
-0.148718
-0.154218
-0.155415
-0.155276
-0.155575
-0.162011
-0.153077
-0.147161
-0.148331
-0.150913
-0.137469
-0.135753
-0.13296
-0.132464
-0.137354
-0.146575
-0.146361
-0.149433
-0.146768
-0.148416
-0.151269
-0.154469
-0.153426
-0.155688
-0.157139
-0.161293
-0.163971
-0.167178
-0.169081
-0.172711
-0.167262
-0.16815
-0.161643
-0.154152
-0.153391
-0.144816
-0.146695
-0.1478
-0.145622
-0.148002
-0.150429
-0.148941
-0.149844
-0.154092
-0.156428
-0.166516
-0.16184
-0.148186
-0.143584
-0.139585
-0.137788
-0.136305
-0.145932
-0.153441
-0.166112
-0.177702
-0.178445
-0.18371
-0.189829
-0.193212
-0.196232
-0.191855
-0.18141
-0.176458
-0.17094
-0.164388
-0.158578
-0.150019
-0.1467
-0.143364
-0.1402
-0.13813
-0.138545
-0.142176
-0.139803
-0.136051
-0.133185
-0.131839
-0.129007
-0.135098
-0.139296
-0.14756
-0.151687
-0.153224
-0.153613
-0.147477
-0.156015
-0.145372
-0.144324
-0.142074
-0.13835
-0.137357
-0.137646
-0.139068
-0.141326
-0.145674
-0.153408
-0.162587
-0.156465
-0.154086
-0.156723
-0.152362
-0.15595
-0.154181
-0.154049
-0.166727
-0.158759
-0.157943
-0.159231
-0.157794
-0.158722
-0.16328
-0.173158
-0.179297
-0.194717
-0.194843
-0.193505
-0.193202
-0.188114
-0.190668
-0.186945
-0.186112
-0.191296
-0.19228
-0.193905
-0.190997
-0.182529
-0.177901
-0.178172
-0.172922
-0.169863
-0.172952
-0.174615
-0.178966
-0.191063
-0.00659045
0.0144691
0.0180749
0.0371871
0.0361936
0.0544681
0.0543204
0.0659108
0.074362
0.0821634
0.0776026
0.0738403
0.0780436
0.0618472
0.0664024
0.063976
0.0734245
0.086674
0.0922139
0.103375
0.101639
0.107101
0.104396
0.0949604
0.0853335
0.0828956
0.0860252
0.0729688
0.0764304
0.0731747
0.0656141
0.0577245
0.0592983
0.0485077
0.0536331
0.052626
0.0579175
0.062758
0.0672887
0.0683227
0.0793017
0.0858567
0.0789143
0.0845269
0.0795865
0.0831226
0.0845348
0.0840266
0.0850393
0.0896588
0.0939805
0.0940065
0.0951728
0.0850821
0.0877687
0.0795863
0.0744121
0.0764978
0.0741675
0.0640547
0.0433838
0.0298609
0.0258586
0.0243154
0.0191247
0.0209541
0.0218229
0.0219244
0.017727
0.0285616
0.0363362
0.0352
0.0323349
0.0250137
0.0255306
0.0107083
0.0121292
0.00585311
0.00418139
-0.00105756
-0.00965879
-0.0169972
-0.0109495
-0.00412059
-0.00200126
0.00692756
0.0210168
0.0259432
0.0300033
0.038023
0.0343328
0.039916
0.0433954
0.0477996
0.0404268
0.0388217
0.0348849
0.0275849
0.0229975
0.020541
0.0205985
0.00774307
0.00947232
0.00913971
0.00889944
0.00535297
0.0103893
0.0136783
0.0111111
0.0194784
0.0304657
0.0444667
0.0439789
0.0413124
0.0474504
0.0429712
0.0439379
0.0382921
0.0374554
0.0220422
0.0144956
0.0117405
0.0161277
0.00885759
0.0165048
0.0270135
0.0344492
0.0349957
0.0398987
0.0399811
0.0512453
0.0508434
0.0550272
0.042978
0.0362027
0.0296365
0.0225741
0.0313695
0.0408872
0.0387121
0.0314788
0.0262136
0.0227354
0.0124066
0.000135639
0.00112391
0.00986969
0.0118319
0.00728255
0.00207901
-0.00943148
-0.0261227
-0.0163318
-0.0116556
0.00531856
0.0173756
0.0170701
0.0145933
0.0305393
0.0526168
0.0554197
0.0536551
0.0470789
0.0474823
0.0455857
0.0475372
0.0391465
0.0321273
0.0312106
0.0287358
0.0207223
0.0183473
0.0131139
0.00109213
-0.00679384
-0.0093886
-0.0151078
-0.0233948
-0.020993
-0.0174557
-0.0142723
-0.00563302
-0.00148776
-0.00253524
-0.00511413
-0.00113058
-0.000728296
-0.00241571
-0.00259166
0.00455617
0.00930647
0.0232287
0.0292289
0.0302692
0.0280691
0.0270133
0.0234359
0.0163186
0.0232203
0.014927
0.0269897
0.0324772
0.0249954
0.0234443
0.0293739
0.0341884
0.0287531
0.0286749
0.0249145
0.035529
0.0366871
0.0347107
0.0385973
0.0283581
0.0240744
0.0233882
0.0211337
0.0350156
0.0390216
0.0428431
0.0346439
0.0411963
0.0491787
0.0437679
0.0434381
0.046586
0.0442553
0.046063
0.0637006
0.0711002
0.071685
0.0708275
0.0677782
0.0638557
0.0547706
0.0425663
0.033116
0.0258956
0.017257
0.0203159
0.030955
0.0317281
0.0416911
0.038747
0.0480899
0.0485446
0.0459857
0.0374399
0.0456864
0.0414015
0.0417704
0.0485791
0.0474592
0.0374004
0.0367704
0.032744
0.0206055
0.0138623
0.00887868
0.0164084
0.0270755
0.0413183
0.0517791
0.0655168
0.0717449
0.0721637
0.0717422
0.0657058
0.0568224
0.0511034
0.0383667
0.0315913
0.0346169
0.0418823
0.049398
0.044465
0.0416746
0.0391803
0.0385193
0.0311852
0.0282526
0.0409598
0.0393172
0.0425565
0.0529455
0.0498138
0.0448434
0.0413947
0.046543
0.0522378
0.0675513
0.0718625
0.0708895
0.0706659
0.0693854
0.0653192
0.064391
0.0724805
0.0685668
0.0754204
0.0714075
0.0695919
0.0599729
0.0533122
0.0662599
0.0712719
0.0708211
0.0717098
0.0682644
0.0546977
0.0510286
0.0506186
0.0528536
0.0516389
0.0491129
0.04147
0.0411751
0.0330118
0.0312242
0.0251087
0.0319428
0.0370726
0.038045
0.0242393
0.0301586
0.0219492
0.0201553
0.0182901
0.0138104
0.0248879
0.0366582
0.0415917
0.0582045
0.0608366
0.0620003
0.0648817
0.0668464
0.0618158
0.054504
0.0459515
0.0317751
0.0306824
0.0234084
0.0284379
0.0322577
0.0335789
0.027124
0.0307365
0.0234809
0.0305507
0.0335603
0.0345151
0.0451914
0.059351
0.0643597
0.0631893
0.0602166
0.0591902
0.0600484
0.065871
0.0647731
0.0633676
0.070252
0.072468
0.0705635
0.0808689
0.0798358
0.0826772
0.0769043
0.0665408
0.0708104
0.0666366
0.060267
0.0589525
0.0505632
0.052393
0.0491899
0.040024
0.0408408
0.0352773
0.0424373
0.0431147
0.0524432
0.0482845
0.0457514
0.048311
0.0516857
0.0584522
0.077874
0.078594
0.0751992
0.0689679
0.0700129
0.0623823
0.0599002
0.0506877
0.0516996
0.053295
0.0558262
0.0530823
0.0538922
0.0513371
0.0462346
0.040588
0.0366538
0.0354874
0.0367986
0.0304546
0.0379914
0.0439734
0.0447272
0.0549835
0.0496568
0.0566059
0.0571965
0.047252
0.0483175
0.0521035
0.0487662
0.0513251
0.0538122
0.0434069
0.0404701
0.0487293
0.0541749
0.0677821
0.0721681
0.0705704
0.0596959
0.0639827
0.0550577
0.0447794
0.0306048
0.0235024
0.0202743
0.0151075
0.00810228
0.00527704
0.0139836
0.0139379
0.0262889
0.0388046
0.0449769
0.0504382
0.0509969
0.0566864
0.0630547
0.0585662
0.055248
0.0520503
0.0600961
0.0635478
0.0716371
0.073739
0.069982
0.0660402
0.070496
0.0622402
0.0489054
0.0279038
0.0393029
0.0480299
0.0404904
0.0516904
0.0486272
0.0633053
0.0695812
0.0698211
0.06924
0.067315
0.0646419
0.0599435
0.0524669
0.044008
0.0382669
0.0343464
0.0405437
0.0537238
0.0522949
0.0559815
0.0476211
0.0344376
0.04533
0.037182
0.0409314
0.0463651
0.0435749
0.0408375
0.0341345
0.0323172
0.0154691
0.00735563
0.00631228
0.00343976
0.00829821
0.00480321
0.0163087
0.0154319
0.0143595
0.0161501
0.00586789
-0.00328651
0.0128624
0.0163413
0.0231823
0.0302582
0.0314076
0.0332334
0.0420988
0.0369765
0.0274668
0.0245978
0.0097669
0.013023
0.0402414
0.0465551
0.0713699
0.0609633
0.082029
0.0862982
0.0982632
0.101323
0.117986
0.107588
0.0914588
0.0902145
0.0569095
0.0994396
0.123691
0.143549
0.152805
0.153296
0.158613
0.147789
0.146103
0.157372
0.157219
0.151541
0.144726
0.15945
0.155025
0.142649
0.107185
0.145742
0.145603
0.13557
0.0924725
0.139367
0.164217
0.175841
0.175404
0.170728
0.169754
0.174524
0.193321
0.18339
0.185227
0.175065
0.161792
0.182135
0.193942
0.191621
0.196035
0.20569
0.202603
0.205523
0.17599
0.134941
0.168832
0.175049
0.173403
0.171813
0.164509
0.146577
0.127074
0.0837812
0.127451
0.126837
0.0956498
0.12072
0.134771
0.141772
0.144683
0.145697
0.146124
0.146316
0.135328
0.132596
0.126872
0.121147
0.103291
0.0774808
0.0812307
0.0813539
0.073455
0.0677882
0.0926589
0.103247
0.126051
0.147592
0.153026
0.13041
0.0992409
0.139471
0.157569
0.155028
0.158183
0.132607
0.10821
0.1271
0.136443
0.135023
0.125685
0.126589
0.10793
0.0772328
0.110925
0.130549
0.131608
0.116844
0.0867569
0.126056
0.145731
0.148214
0.155711
0.156335
0.150394
0.145506
0.14689
0.14338
0.122267
0.113357
0.117645
0.115437
0.104543
0.10386
0.0938033
0.119261
0.143047
0.155031
0.147726
0.152844
0.146752
0.155108
0.149233
0.151124
0.127426
0.087187
0.106431
0.131322
0.137068
0.148302
0.151075
0.130166
0.104453
0.109532
0.108039
0.112253
0.112979
0.115232
0.114393
0.090707
0.0556615
0.0723499
0.047175
0.0959085
0.116536
0.120524
0.116927
0.0807007
0.135482
0.152284
0.170388
0.175555
0.17589
0.165037
0.1523
0.138359
0.136764
0.14054
0.139329
0.136299
0.13802
0.127642
0.11689
0.110288
0.113868
0.096206
0.0512533
0.0788878
0.0460113
0.0892788
0.0999807
0.110775
0.109245
0.0915725
0.064731
0.0890595
0.0997052
0.0928166
0.0942517
0.0633614
0.120495
0.138962
0.145482
0.129266
0.0883871
0.118582
0.13094
0.130956
0.1181
0.12358
0.121838
0.12467
0.135318
0.1268
0.129525
0.133282
0.142745
0.134598
0.145322
0.140436
0.145046
0.153662
0.143209
0.129835
0.0817292
0.113784
0.125091
0.136822
0.143536
0.140769
0.146788
0.152597
0.151068
0.16125
0.159126
0.150127
0.137012
0.161031
0.172422
0.185748
0.191872
0.185821
0.176362
0.155867
0.140575
0.152031
0.149716
0.125009
0.079085
0.110233
0.0959207
0.134979
0.144619
0.15157
0.146841
0.151125
0.150283
0.15232
0.14201
0.148852
0.151413
0.150749
0.152578
0.15574
0.145956
0.127196
0.104548
0.0669718
0.104336
0.108455
0.0875183
0.132919
0.16704
0.180372
0.185674
0.187504
0.185885
0.181439
0.177235
0.166211
0.151658
0.111358
0.140628
0.156673
0.149684
0.153657
0.15079
0.14883
0.140331
0.14078
0.139579
0.133405
0.146987
0.155856
0.150153
0.151063
0.134215
0.0957486
0.136647
0.15935
0.160861
0.169249
0.178811
0.17639
0.165219
0.17697
0.171032
0.146049
0.174958
0.181048
0.184071
0.173957
0.167408
0.164484
0.161022
0.166309
0.177664
0.180375
0.174681
0.17392
0.154855
0.114814
0.142119
0.159094
0.16071
0.153077
0.141733
0.131267
0.108416
0.132956
0.149007
0.14873
0.144392
0.149277
0.127762
0.11905
0.0827839
0.0732185
0.100661
0.0873244
0.135633
0.165858
0.172278
0.178338
0.179611
0.17423
0.174028
0.174073
0.15894
0.134627
0.137881
0.131833
0.127442
0.130018
0.134418
0.124272
0.121131
0.127699
0.144627
0.145911
0.138599
0.0994739
0.150289
0.167511
0.173872
0.171298
0.163623
0.157285
0.169884
0.171665
0.172242
0.177108
0.18205
0.187677
0.196758
0.192471
0.194648
0.186229
0.175339
0.167126
0.158904
0.163397
0.165183
0.168742
0.169691
0.156528
0.145138
0.138144
0.114015
0.137493
0.141449
0.142016
0.117566
0.139285
0.143807
0.148995
0.113617
0.168492
0.177483
0.190021
0.186851
0.172462
0.137781
0.151272
0.15425
0.161775
0.160832
0.165918
0.1648
0.166483
0.168381
0.16669
0.150515
0.12358
0.137123
0.141469
0.131559
0.13012
0.132959
0.143999
0.161134
0.161841
0.167161
0.169888
0.163111
0.153995
0.136274
0.15407
0.173217
0.175772
0.163195
0.145416
0.094756
0.125404
0.168893
0.186204
0.196512
0.194738
0.193191
0.182008
0.175985
0.150281
0.102856
0.131965
0.134422
0.116615
0.0944845
0.0986059
0.105966
0.12694
0.129898
0.131173
0.142378
0.149908
0.166499
0.175326
0.171039
0.171603
0.165122
0.157875
0.134289
0.158196
0.167994
0.182938
0.190513
0.181251
0.18233
0.179769
0.153654
0.0910326
0.141022
0.148739
0.146771
0.120143
0.153945
0.161884
0.165729
0.173949
0.169108
0.162869
0.177004
0.180437
0.169185
0.141291
0.10056
0.135354
0.148007
0.15186
0.163505
0.156653
0.155705
0.147477
0.116827
0.149437
0.159145
0.154712
0.158717
0.155069
0.153185
0.138641
0.120682
0.0642101
0.0889955
0.0996428
0.103133
0.111483
0.114049
0.12558
0.126727
0.114837
0.101904
0.0571786
0.100294
0.131235
0.139711
0.136581
0.141436
0.150691
0.145685
0.145463
0.131312
0.0794099
-0.175074
-0.110743
-0.0517526
-0.0543207
-0.038486
-0.0275051
-0.00459611
-0.00120173
0.0327682
0.0385055
0.0422795
0.0521439
0.0445048
0.0198504
-0.0417588
0.0371673
0.0780957
0.089812
0.121625
0.133744
0.13219
0.139202
0.137145
0.118155
0.117291
0.127409
0.130163
0.121356
0.156606
0.168125
0.106334
0.151974
0.161576
0.123954
0.073196
0.149064
0.182709
0.191913
0.190494
0.16313
0.202461
0.215175
0.195299
0.189598
0.182018
0.204027
0.16471
0.210616
0.216827
0.229029
0.228598
0.237087
0.249685
0.231257
0.222845
0.152655
0.214393
0.233585
0.233575
0.210611
0.160819
0.126926
0.139948
0.10373
0.171744
0.18745
0.138836
0.172786
0.143315
0.183407
0.194136
0.189733
0.192786
0.186416
0.170261
0.135613
0.157915
0.144882
0.148036
0.0898931
0.100556
0.0832087
0.107186
0.0679404
0.109238
0.0954885
0.159924
0.18165
0.188458
0.19189
0.137288
0.196356
0.213533
0.217334
0.197365
0.183002
0.115175
0.149012
0.163336
0.158074
0.168426
0.138875
0.156336
0.108597
0.152642
0.147827
0.169205
0.170461
0.133987
0.177687
0.184987
0.186414
0.185591
0.172039
0.181113
0.18433
0.160303
0.1695
0.158682
0.108244
0.122089
0.139263
0.14075
0.107511
0.0783928
0.154037
0.180279
0.190396
0.184496
0.155044
0.175267
0.190509
0.201286
0.191936
0.174915
0.0981925
0.101245
0.168539
0.19805
0.196751
0.184663
0.172138
0.11534
0.134592
0.0877289
0.108095
0.124667
0.157769
0.16347
0.148104
0.080856
0.0848685
0.0638187
0.115029
0.150479
0.160356
0.166634
0.126041
0.181189
0.211972
0.213983
0.201517
0.173293
0.184403
0.181153
0.161185
0.144817
0.135523
0.160525
0.169846
0.167259
0.171545
0.161103
0.108038
0.116667
0.138354
0.089
0.127249
0.0886151
0.136289
0.112287
0.160474
0.165546
0.151887
0.103358
0.145654
0.145632
0.0959872
0.131913
0.0833281
0.143936
0.184256
0.19406
0.184001
0.114854
0.160522
0.15717
0.130443
0.14874
0.113713
0.16018
0.166906
0.14988
0.11141
0.140735
0.164489
0.165426
0.168323
0.143515
0.167534
0.169829
0.179121
0.193342
0.174039
0.103908
0.132584
0.1104
0.170259
0.181509
0.163794
0.141157
0.176169
0.193649
0.180396
0.169814
0.162449
0.108172
0.155989
0.207744
0.22858
0.229523
0.216238
0.210644
0.197065
0.149746
0.17997
0.182833
0.170273
0.11851
0.159833
0.12332
0.183995
0.18701
0.16821
0.18171
0.188033
0.176278
0.139235
0.148635
0.160801
0.154403
0.187951
0.197335
0.180728
0.185107
0.177659
0.148614
0.0795866
0.125698
0.146142
0.111317
0.181183
0.207337
0.232664
0.245731
0.241544
0.223855
0.220355
0.204271
0.21559
0.19789
0.161929
0.195333
0.193585
0.202588
0.199182
0.190342
0.185274
0.181301
0.157212
0.136884
0.165922
0.163925
0.185461
0.207004
0.198613
0.180134
0.117692
0.174643
0.196457
0.209435
0.221557
0.221011
0.212059
0.169387
0.20098
0.197083
0.149135
0.198868
0.227343
0.223439
0.204848
0.170699
0.142769
0.185368
0.197079
0.211422
0.216754
0.209574
0.174056
0.184027
0.140608
0.201543
0.209692
0.207731
0.203529
0.193701
0.172134
0.107537
0.1612
0.175091
0.192403
0.189875
0.155948
0.173629
0.154003
0.0920244
0.0834798
0.148369
0.119464
0.185497
0.185344
0.206724
0.200205
0.200902
0.186747
0.216109
0.215237
0.191513
0.133204
0.13335
0.143134
0.110733
0.155479
0.164806
0.156463
0.113036
0.145345
0.132395
0.173925
0.185082
0.139659
0.202273
0.228631
0.226248
0.202373
0.180951
0.147033
0.186763
0.202066
0.198955
0.179096
0.20158
0.212093
0.198154
0.229638
0.237389
0.233682
0.208244
0.158431
0.175861
0.190347
0.157797
0.181273
0.157549
0.17552
0.152346
0.149957
0.102666
0.147864
0.17701
0.17023
0.129609
0.172241
0.144675
0.183383
0.144375
0.208944
0.233745
0.242308
0.241394
0.215185
0.150172
0.190421
0.198576
0.196591
0.205729
0.204959
0.209601
0.212895
0.217979
0.211496
0.19325
0.118181
0.167835
0.179591
0.159147
0.125269
0.153444
0.178329
0.193926
0.204827
0.167024
0.212598
0.206782
0.150262
0.121637
0.187574
0.188871
0.207656
0.217914
0.197123
0.123586
0.144994
0.207463
0.244994
0.251246
0.239425
0.199279
0.229536
0.225906
0.209719
0.149473
0.197405
0.193346
0.168044
0.107716
0.111735
0.138603
0.150061
0.16739
0.17337
0.173667
0.177311
0.186971
0.196435
0.209613
0.20148
0.179543
0.167434
0.120622
0.18778
0.22094
0.228431
0.217434
0.176077
0.227563
0.227919
0.206589
0.150212
0.19
0.190754
0.155934
0.116964
0.178091
0.203764
0.207914
0.210556
0.210929
0.16858
0.206069
0.211298
0.199211
0.176211
0.119775
0.163158
0.179937
0.191634
0.19513
0.198327
0.185368
0.137393
0.112768
0.166441
0.184841
0.196714
0.190997
0.189879
0.190823
0.190985
0.159177
0.0903465
0.126945
0.103216
0.134897
0.112743
0.159004
0.158873
0.148525
0.151388
0.150935
0.106316
0.160881
0.170568
0.172915
0.172155
0.16821
0.187976
0.206465
0.20624
0.186418
0.107507
-0.469861
-0.32636
-0.283823
-0.224253
-0.239826
-0.249678
-0.240864
-0.178304
-0.193179
-0.145874
-0.146245
-0.124727
-0.179903
-0.103976
-0.0897895
-0.0579756
-0.0456901
-0.00662253
-0.00115276
0.00348993
0.00547442
-0.0359943
-0.0394771
0.0246302
0.0240511
0.0454803
0.0133116
0.0166669
0.102332
0.129834
0.154197
0.154673
0.134576
0.0639209
0.127653
0.149181
0.169246
0.187169
0.180107
0.130949
0.15774
0.144685
0.172319
0.110552
0.115278
0.190298
0.224033
0.213062
0.210422
0.17441
0.166103
0.213322
0.217929
0.213018
0.189107
0.2262
0.208884
0.190093
0.186636
0.191061
0.11927
0.0984258
0.12927
0.202974
0.220476
0.234294
0.225943
0.191877
0.124872
0.177638
0.180044
0.149957
0.172623
0.175534
0.167901
0.116425
0.156314
0.117154
0.160112
0.152469
0.0868974
0.0691086
0.0881496
0.0958466
0.118152
0.0830301
0.148373
0.182239
0.196285
0.176682
0.213408
0.211087
0.212734
0.186711
0.189859
0.151994
0.173848
0.124709
0.163988
0.121027
0.156516
0.11853
0.174849
0.202317
0.189102
0.135558
0.183135
0.183109
0.190765
0.190626
0.184122
0.139933
0.172884
0.12647
0.148697
0.132231
0.0970252
0.155792
0.116657
0.0968643
0.108853
0.121108
0.0881341
0.0504557
0.0725853
0.145903
0.191066
0.192973
0.173092
0.105075
0.122809
0.171513
0.156207
0.18985
0.174178
0.175622
0.12597
0.177646
0.162682
0.188492
0.193375
0.175896
0.147172
0.138015
0.066537
0.0586652
0.0623651
0.135998
0.165727
0.141466
0.153608
0.112293
0.146807
0.114943
0.159952
0.126458
0.187037
0.206774
0.19424
0.185655
0.203847
0.18753
0.13421
0.160169
0.136032
0.0868913
0.071454
0.0729656
0.136634
0.131006
0.149638
0.13771
0.143051
0.103599
0.101292
0.167085
0.197306
0.194509
0.198726
0.172769
0.127662
0.180527
0.184482
0.151247
0.160317
0.13007
0.138708
0.112895
0.151234
0.181094
0.151883
0.186126
0.210372
0.196108
0.204335
0.153659
0.16704
0.101296
0.108268
0.074734
0.118019
0.113064
0.14806
0.0877739
0.092234
0.135959
0.153419
0.12321
0.100647
0.14295
0.11904
0.172077
0.17811
0.195756
0.182292
0.114322
0.089896
0.155821
0.168255
0.10943
0.101811
0.157675
0.146667
0.157939
0.129787
0.147251
0.0967106
0.113942
0.184296
0.221774
0.224473
0.177621
0.195307
0.163966
0.161107
0.189705
0.18876
0.163318
0.198409
0.211212
0.222478
0.209345
0.184873
0.117894
0.126243
0.161598
0.149514
0.0728332
0.0824657
0.150169
0.132899
0.172376
0.186423
0.155437
0.177202
0.152344
0.122811
0.149054
0.110939
0.164852
0.18212
0.164567
0.212155
0.227961
0.232345
0.225692
0.185939
0.20622
0.164441
0.215136
0.228193
0.211627
0.211519
0.203054
0.161695
0.1761
0.150708
0.172968
0.168996
0.142251
0.101221
0.154091
0.15755
0.191299
0.178504
0.19773
0.17135
0.191547
0.159489
0.175079
0.146594
0.1748
0.211143
0.217255
0.184079
0.219566
0.208703
0.175178
0.215224
0.227244
0.222583
0.183889
0.118977
0.0852146
0.143833
0.139
0.191493
0.204258
0.189292
0.123953
0.189338
0.208598
0.191132
0.210469
0.196571
0.182196
0.165832
0.16795
0.130972
0.144157
0.180884
0.181812
0.165108
0.108444
0.129806
0.177451
0.193102
0.197054
0.170593
0.205271
0.204831
0.167523
0.207523
0.170653
0.198372
0.183128
0.20746
0.217152
0.19479
0.135357
0.0951292
0.121041
0.0838645
0.120781
0.152843
0.114814
0.0941675
0.121542
0.0751143
0.162617
0.207765
0.236444
0.220579
0.230058
0.22306
0.171825
0.147796
0.133598
0.179851
0.170924
0.16107
0.147609
0.200602
0.195004
0.147756
0.194522
0.202215
0.209793
0.184723
0.107985
0.113459
0.175337
0.144025
0.182754
0.12743
0.174685
0.16596
0.168611
0.12909
0.131424
0.174007
0.191726
0.179196
0.192235
0.162676
0.228988
0.250815
0.23527
0.193354
0.231181
0.230311
0.212541
0.198405
0.183249
0.154884
0.151912
0.152584
0.174203
0.164192
0.183164
0.203987
0.220308
0.19881
0.133473
0.147421
0.173713
0.118683
0.0965926
0.104433
0.131784
0.178572
0.192224
0.149596
0.211799
0.205482
0.147823
0.134789
0.178585
0.165978
0.214278
0.220267
0.212585
0.231337
0.219176
0.246921
0.255703
0.25333
0.228383
0.158715
0.221698
0.241869
0.225888
0.239061
0.224884
0.212025
0.180454
0.136543
0.133053
0.107505
0.142387
0.126131
0.110538
0.126625
0.117827
0.169319
0.185146
0.192772
0.18344
0.129404
0.164354
0.13139
0.175891
0.174672
0.215056
0.2187
0.164978
0.225912
0.240753
0.240642
0.249451
0.226599
0.197758
0.140541
0.174062
0.187727
0.182186
0.156053
0.198632
0.197914
0.17558
0.217634
0.225731
0.207876
0.168582
0.170352
0.163802
0.143109
0.142238
0.179153
0.157024
0.18368
0.128069
0.179342
0.190621
0.177285
0.158751
0.163783
0.145388
0.164398
0.177141
0.1782
0.171005
0.114921
0.0882157
0.132122
0.0981843
0.134399
0.160793
0.13306
0.128084
0.168757
0.183814
0.152226
0.171569
0.158108
0.118066
0.110164
0.175348
0.185535
0.214702
0.223611
0.238548
-0.700369
-0.570604
-0.548806
-0.51378
-0.566055
-0.599674