/*--------------------------------*- C++ -*----------------------------------*\
| =========                 |                                                 |
| \\      /  F ield         | OpenFOAM: The Open Source CFD Toolbox           |
|  \\    /   O peration     | Version:  v2012                                 |
|   \\  /    A nd           | Website:  www.openfoam.com                      |
|    \\/     M anipulation  |                                                 |
\*---------------------------------------------------------------------------*/
FoamFile
{
    version     2.0;
    format      ascii;
    class       volVectorField;
    location    "150";
    object      U_filtered;
}
// * * * * * * * * * * * * * * * * * * * * * * * * * * * * * * * * * * * * * //

dimensions      [0 1 -1 0 0 0 0];


internalField   nonuniform List<vector> 
65536
(
(0.318598 -0.295012 0)
(0.919715 -0.28589 0)
(1.47673 -0.275781 0)
(2.00509 -0.274965 0)
(2.53868 -0.275323 0)
(3.07483 -0.269938 0)
(3.59892 -0.269831 0)
(4.13669 -0.267991 0)
(4.64978 -0.260208 0)
(5.16503 -0.2587 0)
(5.69184 -0.251382 0)
(6.19115 -0.238947 0)
(6.67221 -0.229969 0)
(7.15148 -0.22308 0)
(7.59289 -0.225353 0)
(8.0355 -0.22537 0)
(8.44423 -0.212289 0)
(8.83789 -0.201714 0)
(9.23652 -0.193859 0)
(9.61907 -0.179381 0)
(9.97732 -0.160461 0)
(10.288 -0.155008 0)
(10.6072 -0.15179 0)
(10.9121 -0.133807 0)
(11.169 -0.114158 0)
(11.4081 -0.108927 0)
(11.6292 -0.120173 0)
(11.8412 -0.107574 0)
(12.0128 -0.0769977 0)
(12.1486 -0.0717528 0)
(12.3005 -0.0759249 0)
(12.4344 -0.0654765 0)
(12.5436 -0.0540133 0)
(12.6605 -0.0431561 0)
(12.7495 -0.028831 0)
(12.8169 -0.0198285 0)
(12.8658 -0.0221717 0)
(12.9017 -0.0224209 0)
(12.9384 -0.0107817 0)
(12.9465 -0.00154064 0)
(12.9514 0.0190713 0)
(12.8988 0.0271077 0)
(12.8589 0.0196894 0)
(12.7901 0.0241325 0)
(12.7247 0.0328808 0)
(12.6388 0.0480999 0)
(12.5414 0.0597282 0)
(12.4314 0.0653667 0)
(12.3195 0.0606734 0)
(12.1995 0.0555102 0)
(12.076 0.067853 0)
(11.926 0.0829323 0)
(11.7681 0.0835066 0)
(11.6126 0.0828175 0)
(11.4585 0.0771569 0)
(11.3071 0.0665178 0)
(11.1604 0.0788483 0)
(10.9836 0.0962024 0)
(10.7934 0.0937186 0)
(10.6244 0.093607 0)
(10.4291 0.0917706 0)
(10.259 0.083314 0)
(10.0847 0.0864652 0)
(9.90653 0.0908065 0)
(9.72607 0.0894391 0)
(9.54449 0.0947622 0)
(9.35128 0.0883562 0)
(9.18217 0.0801152 0)
(8.99842 0.0977084 0)
(8.80142 0.10472 0)
(8.61022 0.0927182 0)
(8.43435 0.0974134 0)
(8.24032 0.0955018 0)
(8.06637 0.0799138 0)
(7.89785 0.0736161 0)
(7.74622 0.0715631 0)
(7.59713 0.0762361 0)
(7.44161 0.0809521 0)
(7.27764 0.0773854 0)
(7.12221 0.0790445 0)
(6.9638 0.0889605 0)
(6.80264 0.0815185 0)
(6.6578 0.0691121 0)
(6.5236 0.0676815 0)
(6.3771 0.0701576 0)
(6.22834 0.0699574 0)
(6.08321 0.0680521 0)
(5.93855 0.0831003 0)
(5.77051 0.087005 0)
(5.62453 0.0693418 0)
(5.49034 0.0648386 0)
(5.36329 0.0684125 0)
(5.22776 0.0651401 0)
(5.10209 0.0673345 0)
(4.96276 0.0619871 0)
(4.84067 0.0541193 0)
(4.72259 0.0565899 0)
(4.60429 0.060265 0)
(4.48887 0.0641227 0)
(4.36556 0.0603345 0)
(4.2618 0.0572293 0)
(4.15362 0.0555898 0)
(4.05896 0.048772 0)
(3.95835 0.0411531 0)
(3.87127 0.0443851 0)
(3.7718 0.0410851 0)
(3.69789 0.0319024 0)
(3.61566 0.0402022 0)
(3.53524 0.0516054 0)
(3.43249 0.053144 0)
(3.3498 0.0445085 0)
(3.26344 0.0379677 0)
(3.17723 0.0365013 0)
(3.09044 0.0462293 0)
(2.99793 0.0516013 0)
(2.92211 0.0360329 0)
(2.85235 0.024859 0)
(2.78719 0.0313846 0)
(2.7177 0.0398263 0)
(2.66551 0.0386385 0)
(2.60819 0.0251303 0)
(2.5738 0.0146235 0)
(2.52518 0.0162693 0)
(2.4791 0.0180826 0)
(2.43321 0.0304073 0)
(2.37603 0.0368847 0)
(2.30887 0.0395739 0)
(2.23746 0.0414848 0)
(2.16811 0.0273047 0)
(2.11336 0.020862 0)
(2.05729 0.0336936 0)
(1.99173 0.0381557 0)
(1.93016 0.0316464 0)
(1.86973 0.0299224 0)
(1.80914 0.0290046 0)
(1.75588 0.016071 0)
(1.73782 0.0150727 0)
(1.70275 0.0158274 0)
(1.67014 0.0137097 0)
(1.62623 0.0254781 0)
(1.57359 0.0306079 0)
(1.52379 0.0246922 0)
(1.4839 0.0206297 0)
(1.45055 0.0118424 0)
(1.42463 0.00887077 0)
(1.39908 0.00761121 0)
(1.38136 0.00626451 0)
(1.35761 0.0129121 0)
(1.31977 0.0161462 0)
(1.28935 0.0213624 0)
(1.2576 0.026567 0)
(1.22751 0.0197416 0)
(1.201 0.00565533 0)
(1.20303 -0.00283634 0)
(1.19684 0.00406506 0)
(1.17971 0.011417 0)
(1.15304 0.00769272 0)
(1.13625 0.00603796 0)
(1.12666 0.00813688 0)
(1.10121 0.0134073 0)
(1.07075 0.0138272 0)
(1.03442 0.0127853 0)
(1.00797 0.0237362 0)
(0.958456 0.0270085 0)
(0.922884 0.0180055 0)
(0.894715 0.0128377 0)
(0.86993 0.00974795 0)
(0.861871 0.00701758 0)
(0.834039 0.00782517 0)
(0.816964 0.0190588 0)
(0.777457 0.0201519 0)
(0.742814 0.0146882 0)
(0.71858 0.0189236 0)
(0.685805 0.0132621 0)
(0.683763 0.00393695 0)
(0.672122 -0.0010654 0)
(0.664004 -0.00876291 0)
(0.668122 -0.00420497 0)
(0.666523 0.00765624 0)
(0.671621 0.00517683 0)
(0.665974 -0.00572077 0)
(0.667128 -0.00552076 0)
(0.658362 0.00333198 0)
(0.645141 0.00112314 0)
(0.654493 -0.00194757 0)
(0.648241 0.0121764 0)
(0.622058 0.0215736 0)
(0.598475 0.0202838 0)
(0.569045 0.0166295 0)
(0.54836 0.00830771 0)
(0.533796 0.00389723 0)
(0.509679 0.00469062 0)
(0.504713 0.00281229 0)
(0.48295 -0.00233215 0)
(0.494693 -0.00506608 0)
(0.49804 -0.00478157 0)
(0.498727 0.00100003 0)
(0.482998 0.0181072 0)
(0.459853 0.0214363 0)
(0.439068 0.0107758 0)
(0.418007 0.0017051 0)
(0.421904 -0.00436572 0)
(0.418364 -0.00782998 0)
(0.424631 -0.0093918 0)
(0.435072 0.00906161 0)
(0.412098 0.0198029 0)
(0.398842 0.00438619 0)
(0.396979 -0.00558773 0)
(0.390918 -0.00436226 0)
(0.385561 0.00475943 0)
(0.363716 0.00792508 0)
(0.362639 0.00451379 0)
(0.364252 0.0107742 0)
(0.35548 0.0130833 0)
(0.344885 0.00798288 0)
(0.334189 0.000276482 0)
(0.323401 -0.00448486 0)
(0.315247 0.000673787 0)
(0.301154 0.0124911 0)
(0.280701 0.0106715 0)
(0.277234 -0.00162656 0)
(0.284057 7.69769e-05 0)
(0.267232 -5.99718e-05 0)
(0.265532 -0.00522541 0)
(0.270261 -0.00833293 0)
(0.273594 0.000911508 0)
(0.281828 0.00703452 0)
(0.280453 -0.00534508 0)
(0.295614 -0.00532302 0)
(0.279193 -0.00178261 0)
(0.282452 -0.00531269 0)
(0.284006 -0.00468705 0)
(0.278198 0.00880001 0)
(0.262343 0.0222749 0)
(0.236838 0.0116086 0)
(0.225299 0.00279374 0)
(0.209305 0.00617651 0)
(0.190822 -0.00309633 0)
(0.204724 -0.0123277 0)
(0.214741 -0.00842435 0)
(0.22129 -0.00389922 0)
(0.236005 0.00176775 0)
(0.222812 -0.00175777 0)
(0.222155 -0.00450455 0)
(0.222559 0.00411247 0)
(0.218842 0.0161272 0)
(0.208021 0.0145266 0)
(0.203142 -0.00269758 0)
(0.198291 -0.00753445 0)
(0.199656 0.000227767 0)
(0.192411 0.0154063 0)
(0.171696 0.0116703 0)
(0.177917 -0.00214289 0)
(0.168604 -0.00853816 0)
(0.175813 -0.00658978 0)
(0.191154 0.00812043 0)
(0.178122 0.0085456 0)
(0.180262 -0.000688731 0)
(0.18423 -0.00299152 0)
(0.181111 -0.00624106 0)
(0.188784 -0.000424818 0)
(0.190913 0.0119298 0)
(0.167202 0.00257448 0)
(0.167218 -0.00224784 0)
(0.148627 0.00582503 0)
(0.14795 0.00586028 0)
(0.139995 -0.00155151 0)
(0.141076 -0.00597912 0)
(0.148684 0.00163797 0)
(0.150263 0.00518088 0)
(0.154585 -0.00531472 0)
(0.16398 -0.010941 0)
(0.165581 0.0071105 0)
(0.143047 0.0165645 0)
(0.121433 0.0078071 0)
(0.106167 0.00743752 0)
(0.099541 0.00380607 0)
(0.0954546 -0.00908972 0)
(0.108398 -0.00965922 0)
(0.118152 -0.00307037 0)
(0.144146 -0.00149233 0)
(0.147207 -0.00232317 0)
(0.147046 0.00783137 0)
(0.1232 0.0138896 0)
(0.113835 -0.00125147 0)
(0.12137 -0.0114464 0)
(0.122362 -0.00723996 0)
(0.125679 0.00695667 0)
(0.126715 0.00799707 0)
(0.132395 0.000601805 0)
(0.117545 0.00590049 0)
(0.119448 0.00522523 0)
(0.11036 -0.00249635 0)
(0.106186 0.000279121 0)
(0.0878386 0.0108003 0)
(0.0766661 0.00695005 0)
(0.0701319 0.000907578 0)
(0.0635465 0.00262179 0)
(0.0559008 -0.00411576 0)
(0.0680618 -0.00574036 0)
(0.0617049 0.00363782 0)
(0.0617523 0.00273604 0)
(0.0601214 -0.0012442 0)
(0.062458 -0.00162652 0)
(0.0801662 -0.00907619 0)
(0.107215 -0.0147192 0)
(0.119849 -4.15831e-05 0)
(0.105908 0.0099188 0)
(0.089508 0.00678927 0)
(0.0749934 0.0049039 0)
(0.0692377 -0.000242448 0)
(0.0701048 -0.0100175 0)
(0.0962637 -0.00595569 0)
(0.0822477 0.0036683 0)
(0.0925252 0.0043405 0)
(0.0901409 -0.00177903 0)
(0.0860079 -0.000863734 0)
(0.075045 0.00511537 0)
(0.0715864 0.0109329 0)
(0.0717588 0.0106526 0)
(0.0614642 0.00360648 0)
(0.0570652 -0.00345139 0)
(0.0497866 -0.00132173 0)
(0.0379922 0.00573149 0)
(0.0384682 0.00272836 0)
(0.0323088 -0.00497059 0)
(0.0351102 -0.0083452 0)
(0.0459561 -0.0097428 0)
(0.0534021 -0.0141505 0)
(0.099054 -0.0118125 0)
(0.126237 0.000651259 0)
(0.13132 0.00128715 0)
(0.13384 -0.00594821 0)
(0.135375 -0.00206972 0)
(0.122282 0.00645098 0)
(0.105833 0.00555262 0)
(0.0851524 0.0115638 0)
(0.0709696 0.0155623 0)
(0.0491495 0.009407 0)
(0.0290623 0.00959937 0)
(0.0219168 0.00412116 0)
(0.0137423 -0.00794751 0)
(0.0213508 -0.00887374 0)
(0.0240823 -0.00429042 0)
(0.0351438 0.00328952 0)
(0.0465419 0.00439415 0)
(0.0636158 -0.00708421 0)
(0.0660197 -0.0122302 0)
(0.0839243 -0.00921397 0)
(0.0900268 -0.00549421 0)
(0.0864332 0.000661284 0)
(0.0723165 0.0121349 0)
(0.0496066 0.0144087 0)
(0.0281333 0.00444316 0)
(0.0216166 -0.000724435 0)
(0.0240513 -0.00404166 0)
(0.0244433 -0.0110486 0)
(0.0357049 -0.00615474 0)
(0.048001 0.00283279 0)
(0.0512407 0.00420233 0)
(0.0596863 -0.00010131 0)
(0.0636117 -0.00229005 0)
(0.0614055 -0.00123808 0)
(0.0702875 -0.00371202 0)
(0.0741794 -0.00452852 0)
(0.075894 0.00408454 0)
(0.0692453 0.00464237 0)
(0.0672033 -0.00113926 0)
(0.0597334 -0.0046297 0)
(0.0603896 -0.00508208 0)
(0.0592981 0.000923097 0)
(0.0585488 0.0042141 0)
(0.0737734 0.00478969 0)
(0.0645407 -0.00107725 0)
(0.0678435 -0.00319489 0)
(0.0688842 0.000652731 0)
(0.0625562 0.00157765 0)
(0.0582697 -0.000879252 0)
(0.0494554 -0.000767575 0)
(0.0492599 0.0052049 0)
(0.0311867 0.0145461 0)
(0.0201057 0.00728996 0)
(0.0326428 0.00294126 0)
(0.0236402 0.00270538 0)
(0.0185948 -0.00661928 0)
(0.0255443 -0.00929938 0)
(0.0244019 -0.00108224 0)
(0.0257738 0.00903192 0)
(0.0102913 0.00636584 0)
(0.0138431 -0.00510712 0)
(0.0133822 -0.0037722 0)
(0.00959524 0.00265269 0)
(0.0318047 0.00107013 0)
(0.0363008 -0.00613781 0)
(0.0483497 -0.00726915 0)
(0.0618315 -0.00609284 0)
(0.0592711 -0.00310171 0)
(0.061063 0.00470219 0)
(0.0480545 0.00825352 0)
(0.0453797 0.00526111 0)
(0.022746 0.0052818 0)
(0.00820871 0.00852697 0)
(-0.0139068 0.0065634 0)
(-0.00869547 -0.00587512 0)
(0.000598542 -0.00668451 0)
(-0.00733747 0.000793607 0)
(-0.0087596 -0.000195965 0)
(0.00354262 -0.00540749 0)
(0.0314281 -0.00376301 0)
(0.0464744 0.00248615 0)
(0.0485931 0.00237916 0)
(0.0460757 0.00144723 0)
(0.0361913 -0.00176661 0)
(0.0260504 0.000393815 0)
(0.0113973 0.0110166 0)
(-0.0119443 0.0118088 0)
(-0.00757305 -0.00142522 0)
(0.00149385 -0.0118719 0)
(0.0173759 -0.00900544 0)
(0.0201271 0.00304896 0)
(0.0119322 0.00659136 0)
(0.0123474 -0.00366534 0)
(0.019361 -0.00925189 0)
(0.0275887 -0.00524418 0)
(0.0318499 -0.0053927 0)
(0.0319549 -0.00219821 0)
(0.0299934 0.0067726 0)
(0.0178751 0.0157215 0)
(0.00655928 0.0110431 0)
(-0.00743837 0.00566353 0)
(-0.0235854 0.00815015 0)
(-0.0294895 0.00570958 0)
(-0.0349622 -0.00429943 0)
(-0.0213782 -0.00563322 0)
(-0.0328359 -0.00417689 0)
(-0.00702988 -0.00824645 0)
(-0.00111347 -0.00837545 0)
(0.0147187 -0.000865373 0)
(0.0194498 0.00488276 0)
(0.0182424 -0.00440005 0)
(0.0372527 -0.00493537 0)
(0.0295826 -0.00693104 0)
(0.0450491 -0.00575815 0)
(0.0352605 0.0019526 0)
(0.0336337 0.00377782 0)
(0.0244483 -0.000305379 0)
(0.0292495 -0.0050154 0)
(0.0322056 -0.000603747 0)
(0.0407981 0.00399288 0)
(0.034379 -0.00232382 0)
(0.0434819 -0.0113093 0)
(0.0566848 -0.0100715 0)
(0.0578178 -0.00243811 0)
(0.0615213 0.00748602 0)
(0.0531663 0.00704046 0)
(0.0577033 0.00150986 0)
(0.0545636 0.0115249 0)
(0.0362271 0.0137754 0)
(0.0209328 0.00188056 0)
(0.0113041 -0.00241028 0)
(0.00962845 0.00010077 0)
(0.00438981 0.00435891 0)
(-0.0149548 0.013373 0)
(-0.0249036 0.0103333 0)
(-0.0337842 0.00139616 0)
(-0.0422613 0.00247736 0)
(-0.0387643 -0.00696378 0)
(-0.0215058 -0.0116962 0)
(-0.0150752 -0.0115103 0)
(0.00825131 -0.0168926 0)
(0.0306931 -0.00702232 0)
(0.042281 0.00257912 0)
(0.0332948 -0.00095423 0)
(0.0316821 0.00520153 0)
(0.0322605 0.00830532 0)
(0.0163749 0.00380803 0)
(0.00360579 0.00380181 0)
(-0.0115374 0.00116594 0)
(-0.0234759 0.000622312 0)
(-0.0347188 0.0039948 0)
(-0.0376943 0.00708897 0)
(-0.0445489 0.0129294 0)
(-0.0398496 0.00904243 0)
(-0.037804 -0.00442146 0)
(-0.0224017 -0.014429 0)
(-0.00856902 -0.0117712 0)
(-0.0142115 -0.00442026 0)
(-0.0170653 -0.0100527 0)
(0.00862304 -0.0148281 0)
(0.0236471 -0.00126147 0)
(0.0110569 0.00261455 0)
(0.0186883 -5.8384e-05 0)
(0.0312015 0.00669715 0)
(0.0282926 0.0106689 0)
(0.0150659 0.00729925 0)
(0.0128748 0.00621276 0)
(-0.00666075 0.00275471 0)
(-0.00407495 -0.00736518 0)
(-0.00373795 -0.00730231 0)
(-0.0051276 -0.00324659 0)
(0.00129834 -0.00106709 0)
(0.00541003 0.00679911 0)
(0.0142939 0.014661 0)
(-0.00544091 0.00862786 0)
(-0.00633763 0.000673917 0)
(-0.0165194 0.000875731 0)
(-0.0311761 0.00229507 0)
(-0.0272825 -0.00375998 0)
(-0.0210596 -0.0100331 0)
(-0.0117437 -0.00635207 0)
(-0.0109034 -0.00033997 0)
(-0.00468263 0.00249483 0)
(0.323911 -0.930536 0)
(0.925904 -0.871643 0)
(1.48111 -0.812649 0)
(2.00241 -0.790354 0)
(2.51959 -0.796959 0)
(3.05708 -0.795105 0)
(3.5895 -0.797626 0)
(4.11523 -0.790704 0)
(4.62946 -0.77575 0)
(5.15276 -0.792038 0)
(5.67682 -0.784204 0)
(6.18227 -0.751025 0)
(6.67496 -0.739895 0)
(7.17103 -0.706969 0)
(7.61829 -0.667277 0)
(8.04723 -0.634647 0)
(8.44052 -0.598211 0)
(8.8216 -0.59828 0)
(9.22212 -0.593699 0)
(9.60705 -0.567012 0)
(9.98756 -0.512807 0)
(10.3166 -0.47785 0)
(10.6345 -0.474217 0)
(10.9443 -0.42819 0)
(11.2085 -0.382249 0)
(11.484 -0.350701 0)
(11.6932 -0.31137 0)
(11.8525 -0.273773 0)
(12.0307 -0.22743 0)
(12.1767 -0.211977 0)
(12.313 -0.205642 0)
(12.4281 -0.172774 0)
(12.528 -0.16652 0)
(12.6516 -0.157024 0)
(12.7582 -0.120815 0)
(12.8569 -0.0900187 0)
(12.9261 -0.0557553 0)
(12.9322 -0.0442829 0)
(12.9627 -0.0282867 0)
(12.9634 -0.00640756 0)
(12.9659 0.0333333 0)
(12.9434 0.0705683 0)
(12.8921 0.093741 0)
(12.7889 0.115347 0)
(12.7 0.123963 0)
(12.6067 0.14188 0)
(12.5259 0.155205 0)
(12.4373 0.164949 0)
(12.3501 0.179616 0)
(12.2128 0.196432 0)
(12.0585 0.213714 0)
(11.9234 0.232978 0)
(11.7833 0.236728 0)
(11.6343 0.232975 0)
(11.4982 0.233965 0)
(11.3201 0.235954 0)
(11.1425 0.248244 0)
(10.9803 0.273796 0)
(10.8047 0.267895 0)
(10.6424 0.273021 0)
(10.454 0.275344 0)
(10.2818 0.262698 0)
(10.09 0.267899 0)
(9.91701 0.270135 0)
(9.73793 0.274838 0)
(9.55063 0.282552 0)
(9.36564 0.276505 0)
(9.16259 0.275546 0)
(8.95415 0.285545 0)
(8.80088 0.286242 0)
(8.61381 0.27719 0)
(8.43631 0.275122 0)
(8.2731 0.274293 0)
(8.08981 0.264808 0)
(7.89222 0.247586 0)
(7.72531 0.230554 0)
(7.56698 0.22918 0)
(7.41981 0.240145 0)
(7.25436 0.243798 0)
(7.08141 0.236853 0)
(6.9456 0.233229 0)
(6.82369 0.226035 0)
(6.67572 0.21222 0)
(6.53366 0.214898 0)
(6.36865 0.227322 0)
(6.21454 0.225584 0)
(6.04911 0.223377 0)
(5.8941 0.230777 0)
(5.76806 0.227979 0)
(5.6343 0.212006 0)
(5.48216 0.197093 0)
(5.3699 0.195175 0)
(5.23744 0.196312 0)
(5.10812 0.198057 0)
(4.97408 0.199468 0)
(4.82476 0.186223 0)
(4.69289 0.179657 0)
(4.57345 0.17427 0)
(4.47118 0.17501 0)
(4.36651 0.167783 0)
(4.27277 0.15583 0)
(4.18182 0.148966 0)
(4.09957 0.148749 0)
(3.98055 0.148718 0)
(3.87023 0.144701 0)
(3.774 0.13415 0)
(3.67925 0.126102 0)
(3.57181 0.124725 0)
(3.50788 0.133284 0)
(3.42608 0.134809 0)
(3.36671 0.126211 0)
(3.26673 0.137738 0)
(3.15196 0.138562 0)
(3.05255 0.135566 0)
(2.9857 0.119358 0)
(2.93468 0.111881 0)
(2.83727 0.112792 0)
(2.74634 0.106054 0)
(2.68421 0.084495 0)
(2.66897 0.0732851 0)
(2.63441 0.0684011 0)
(2.58615 0.0696859 0)
(2.51146 0.0795096 0)
(2.43904 0.0745443 0)
(2.38833 0.0735014 0)
(2.35871 0.0884761 0)
(2.29608 0.100173 0)
(2.24999 0.100638 0)
(2.19443 0.0974813 0)
(2.1067 0.0911986 0)
(2.04015 0.0890876 0)
(2.00158 0.0895819 0)
(1.95125 0.0906296 0)
(1.88347 0.0906407 0)
(1.8328 0.0843397 0)
(1.76659 0.0539073 0)
(1.74296 0.0367528 0)
(1.71778 0.0503338 0)
(1.66565 0.0615136 0)
(1.60637 0.0699469 0)
(1.57894 0.0710557 0)
(1.54006 0.0641374 0)
(1.51177 0.0525192 0)
(1.48157 0.0471863 0)
(1.43183 0.0425359 0)
(1.40241 0.0357553 0)
(1.37123 0.036345 0)
(1.33341 0.0498485 0)
(1.29227 0.0538278 0)
(1.25364 0.0430138 0)
(1.25136 0.0368154 0)
(1.25165 0.0388856 0)
(1.22441 0.020142 0)
(1.22124 0.00886299 0)
(1.19385 0.0208497 0)
(1.17962 0.0345104 0)
(1.14152 0.0379391 0)
(1.11321 0.0216464 0)
(1.10932 0.0290912 0)
(1.06601 0.0447911 0)
(1.04182 0.0552204 0)
(0.984708 0.052172 0)
(0.9629 0.0539182 0)
(0.944744 0.0601029 0)
(0.923793 0.0474182 0)
(0.90181 0.0425814 0)
(0.870008 0.024842 0)
(0.870999 0.0306364 0)
(0.817686 0.0388507 0)
(0.804159 0.0390544 0)
(0.792078 0.0557015 0)
(0.750582 0.0454411 0)
(0.737755 0.03932 0)
(0.723778 0.0222416 0)
(0.736588 0.0103546 0)
(0.713566 0.0212549 0)
(0.681219 0.0124898 0)
(0.657222 0.00170006 0)
(0.656507 -0.0114751 0)
(0.694747 -0.00426709 0)
(0.678575 0.0103584 0)
(0.652264 0.0140069 0)
(0.629991 0.0196724 0)
(0.613249 0.00396514 0)
(0.611282 -0.000725068 0)
(0.600714 0.0210658 0)
(0.606095 0.0281507 0)
(0.611112 0.0324347 0)
(0.595122 0.0327866 0)
(0.591603 0.0262369 0)
(0.56483 0.0342294 0)
(0.524775 0.0239908 0)
(0.520288 0.0240416 0)
(0.471076 0.0124696 0)
(0.477931 -0.00966525 0)
(0.477844 0.00129357 0)
(0.455208 0.0148617 0)
(0.445315 0.0210796 0)
(0.467356 0.0230345 0)
(0.460265 0.0310059 0)
(0.431319 0.0156471 0)
(0.426966 0.00394026 0)
(0.408606 0.00561216 0)
(0.388309 -0.0076602 0)
(0.389376 0.00452435 0)
(0.412934 0.0167438 0)
(0.420612 0.0121055 0)
(0.406657 0.0131665 0)
(0.379323 0.0167879 0)
(0.359389 0.0228128 0)
(0.348628 0.0158227 0)
(0.34959 -0.00486965 0)
(0.365116 -0.00290133 0)
(0.383093 0.00654946 0)
(0.392336 0.013646 0)
(0.384315 0.0217862 0)
(0.349 0.0235652 0)
(0.314315 0.0217505 0)
(0.298244 0.0216614 0)
(0.305511 0.0129454 0)
(0.298585 -0.00353215 0)
(0.303342 0.00863716 0)
(0.279813 0.0168893 0)
(0.266341 0.00038295 0)
(0.259426 -0.00186205 0)
(0.248468 -0.0143874 0)
(0.295382 -0.0164391 0)
(0.310319 -0.0111108 0)
(0.312624 0.00449435 0)
(0.282427 0.0130856 0)
(0.270529 -0.00145799 0)
(0.253838 0.00721887 0)
(0.238895 0.0111929 0)
(0.267291 0.0180919 0)
(0.272842 0.024203 0)
(0.247681 0.0236614 0)
(0.223705 0.0269541 0)
(0.203928 0.00684122 0)
(0.195614 -0.0125156 0)
(0.191816 -0.00812239 0)
(0.188407 -0.0172499 0)
(0.219387 -0.0033053 0)
(0.199554 0.0160292 0)
(0.171594 0.00459931 0)
(0.168849 -0.000573294 0)
(0.184919 -0.00194546 0)
(0.230571 0.00150669 0)
(0.231683 0.0124225 0)
(0.197248 0.0117288 0)
(0.178894 0.0060062 0)
(0.184396 0.0135948 0)
(0.202861 0.00394164 0)
(0.215335 0.00634848 0)
(0.182829 0.0114652 0)
(0.159898 -0.0145587 0)
(0.184488 -0.00888588 0)
(0.196312 0.00356574 0)
(0.201719 -0.00422388 0)
(0.203797 0.00325893 0)
(0.185279 0.00271838 0)
(0.177225 -0.0081514 0)
(0.20375 0.0111003 0)
(0.192202 0.0224802 0)
(0.164908 0.0220451 0)
(0.132417 0.0147041 0)
(0.147724 0.00353662 0)
(0.140588 0.00986107 0)
(0.122116 -0.00208082 0)
(0.129292 -0.0103156 0)
(0.147473 -0.0108238 0)
(0.164581 -0.00779612 0)
(0.147311 5.15093e-05 0)
(0.132095 0.014358 0)
(0.142818 0.0282384 0)
(0.122541 0.0295499 0)
(0.0998533 0.0143701 0)
(0.110464 0.00632819 0)
(0.0918278 -0.000308557 0)
(0.0784489 -0.0139848 0)
(0.0891682 -0.0337726 0)
(0.145139 -0.0290821 0)
(0.147951 -0.00145857 0)
(0.137076 0.0146072 0)
(0.137651 0.0178627 0)
(0.138755 0.00115019 0)
(0.124347 0.0012007 0)
(0.0967349 0.00106017 0)
(0.0985495 -0.0128192 0)
(0.146272 -0.0164418 0)
(0.158955 0.00701254 0)
(0.135588 0.00590168 0)
(0.161841 0.000812325 0)
(0.147141 0.0146022 0)
(0.114414 0.0214019 0)
(0.0948577 0.0182052 0)
(0.105166 0.0101188 0)
(0.0912903 0.0120429 0)
(0.0806738 0.0113802 0)
(0.0730275 0.000211768 0)
(0.0658695 0.000121844 0)
(0.0519638 0.00326643 0)
(0.0687437 -0.000758583 0)
(0.0576153 0.00123736 0)
(0.0646043 -0.0184224 0)
(0.0941089 -0.0352101 0)
(0.10709 -0.0250388 0)
(0.10791 0.00146151 0)
(0.109403 0.0205395 0)
(0.095022 0.0242429 0)
(0.0759024 0.0154008 0)
(0.072497 0.00574695 0)
(0.0590209 -0.0166104 0)
(0.0762163 -0.00513359 0)
(0.0485235 0.00118934 0)
(0.083423 -0.0109107 0)
(0.0858277 0.0087034 0)
(0.0608499 0.0163398 0)
(0.0466275 0.00932948 0)
(0.0569193 -0.00794586 0)
(0.095661 -0.00101378 0)
(0.0974415 0.0108333 0)
(0.0868911 0.014531 0)
(0.0545917 0.0200242 0)
(0.036922 0.00467631 0)
(0.061759 0.00264832 0)
(0.0343455 0.00819626 0)
(0.0291504 -0.00531205 0)
(0.0246009 -0.00893405 0)
(0.0175276 -0.0395777 0)
(0.0686468 -0.0617504 0)
(0.120299 -0.0329344 0)
(0.150063 -0.00919573 0)
(0.143228 0.00206126 0)
(0.122316 0.0132025 0)
(0.108678 0.0229396 0)
(0.090381 0.0310927 0)
(0.0536399 0.0224879 0)
(0.0757511 0.0190402 0)
(0.0613485 0.031447 0)
(0.0380084 0.0162362 0)
(0.0539939 0.0101386 0)
(0.030718 0.00702578 0)
(0.0115955 -0.00296075 0)
(0.00710983 -0.0109841 0)
(0.0225112 -0.0270998 0)
(0.0751581 -0.0343348 0)
(0.116261 -0.0142864 0)
(0.0883633 -0.00967429 0)
(0.0939726 -0.0171579 0)
(0.092475 0.000687216 0)
(0.074107 0.0148399 0)
(0.0599166 0.0229316 0)
(0.0582838 0.027951 0)
(0.0353678 0.0224587 0)
(0.0185622 0.00341141 0)
(0.0229924 0.000406542 0)
(-0.000892784 -0.00180671 0)
(-0.0105159 -0.0181073 0)
(0.0213099 -0.0190182 0)
(0.0455882 -0.0163687 0)
(0.0657352 -0.0124969 0)
(0.0726504 0.000317612 0)
(0.0619305 -0.0052353 0)
(0.0819387 -0.00914579 0)
(0.0730508 -0.00104178 0)
(0.0733611 0.000622113 0)
(0.0824307 0.00391685 0)
(0.0764183 0.0104585 0)
(0.0544352 0.01167 0)
(0.0348017 0.00507393 0)
(0.0267097 0.000924029 0)
(0.0354398 -0.019331 0)
(0.0861106 -0.0111106 0)
(0.0794099 0.00640379 0)
(0.0720854 -0.00163205 0)
(0.0718796 0.00409277 0)
(0.0608244 0.0091082 0)
(0.0518105 0.0134002 0)
(0.0299324 0.00948696 0)
(0.0273383 0.0124637 0)
(0.023986 0.0145859 0)
(0.0438219 -0.00899298 0)
(0.06804 -0.00592877 0)
(0.0704205 0.0114509 0)
(0.0513009 0.00481694 0)
(0.0250276 0.00348891 0)
(0.00730836 0.000881946 0)
(0.0275572 0.0050504 0)
(0.0296842 0.00612009 0)
(0.0265227 0.00244765 0)
(0.00329494 0.00815305 0)
(-0.00594962 -0.0205192 0)
(0.0513783 -0.0271818 0)
(0.0492727 -0.00965909 0)
(0.0524964 -0.0178217 0)
(0.0674093 -0.00517789 0)
(0.0466818 0.00352533 0)
(0.0464998 0.00612228 0)
(0.0507416 0.00749534 0)
(0.060903 0.0192624 0)
(0.0251308 0.0317953 0)
(-0.000876809 0.0278967 0)
(-0.0182691 0.0101666 0)
(-0.00629922 -0.00907339 0)
(-0.0196145 0.00513263 0)
(-0.0414249 0.0083447 0)
(-0.0398711 -0.0104313 0)
(-0.0180266 -0.0350616 0)
(0.0223206 -0.0391784 0)
(0.0532079 -0.0200924 0)
(0.0724372 -0.00318822 0)
(0.0742537 0.0100356 0)
(0.0533499 0.0200565 0)
(0.0181068 0.0231135 0)
(-0.00386359 0.0257022 0)
(-0.00427256 0.00645139 0)
(0.0181527 -0.0128085 0)
(0.0147059 -0.0135636 0)
(0.0126671 -0.0101263 0)
(0.0155958 0.00256445 0)
(0.0178928 0.0012676 0)
(0.0243855 -0.00386098 0)
(0.00804576 -0.00565112 0)
(0.011105 -0.00688507 0)
(0.00835883 0.00153111 0)
(-0.00703146 0.00447672 0)
(-0.00781008 0.00775074 0)
(0.0021456 0.00815232 0)
(0.0281193 0.0145305 0)
(0.00542069 0.0251462 0)
(-0.00923417 0.0146007 0)
(-0.00193533 0.00636608 0)
(-0.00709639 -0.00339318 0)
(-0.00572907 0.00317916 0)
(-0.0325296 -0.0104956 0)
(0.00343157 -0.0240171 0)
(-0.00504651 -0.0140733 0)
(0.00635564 -0.020613 0)
(0.0413969 -0.00927372 0)
(0.0422944 -0.0148688 0)
(0.0606391 -0.00795141 0)
(0.0483411 -0.00215597 0)
(0.0433206 -0.000655295 0)
(0.0273286 0.00857637 0)
(0.0287278 0.00630707 0)
(0.0227203 0.00454748 0)
(0.014809 -0.0028741 0)
(0.00951494 -0.0109094 0)
(0.0372131 -0.00619802 0)
(0.0342331 -9.81166e-05 0)
(0.028011 -0.0106932 0)
(0.0177803 -0.00387197 0)
(0.00539741 -0.00215668 0)
(0.01806 -0.00262891 0)
(0.0387647 -0.00275708 0)
(0.0512661 -0.00317945 0)
(0.0515904 0.0100283 0)
(0.0614961 0.0194911 0)
(0.0499949 0.0225827 0)
(0.0146469 0.0125585 0)
(0.0135449 0.00566815 0)
(0.000432702 0.0191866 0)
(-0.0224159 0.0143908 0)
(0.00607416 0.00688 0)
(-0.00716112 0.0140842 0)
(-0.0177134 0.00102904 0)
(-0.00471816 -0.0150955 0)
(-0.0126627 -0.0136511 0)
(-0.0170361 -0.0197584 0)
(-0.00471319 -0.0305405 0)
(0.000831439 -0.0284644 0)
(0.0366098 -0.00654168 0)
(0.0193138 0.0105749 0)
(0.0101444 -0.00475235 0)
(0.0461437 0.00634736 0)
(0.0238823 0.0246407 0)
(0.00243926 0.0235577 0)
(-0.0195432 0.0266353 0)
(-0.0584452 0.0230106 0)
(-0.067517 0.0109894 0)
(-0.0667775 0.00326008 0)
(-0.0512624 -0.00997672 0)
(0.003705 -0.0148777 0)
(0.0247126 -0.0125573 0)
(0.027786 -0.0142456 0)
(0.0149646 0.00366198 0)
(-0.0174028 0.0137676 0)
(-0.0321387 -0.0128693 0)
(-0.0280024 -0.0257317 0)
(-0.020169 -0.00132 0)
(-0.0268926 0.00308585 0)
(-0.0194126 -0.0198598 0)
(0.0157828 -0.014741 0)
(0.0405166 0.00705898 0)
(0.03868 0.0102442 0)
(0.0414874 0.0175452 0)
(0.0219801 0.0164179 0)
(0.0167169 0.00700722 0)
(-0.0127146 0.0108889 0)
(-0.0339007 0.000716739 0)
(-0.0304717 -0.00739278 0)
(-0.0208886 -0.0183285 0)
(0.0336785 -0.00195417 0)
(0.0348732 0.0131899 0)
(0.0363855 0.0113534 0)
(0.00965816 0.0245977 0)
(-0.0142143 0.00866217 0)
(0.00235607 -0.00586317 0)
(-0.0126142 -0.00464287 0)
(-0.0233932 -0.00303217 0)
(-0.0355822 -0.00571346 0)
(-0.0194808 -0.0172014 0)
(0.29505 -1.55108 0)
(0.878361 -1.4502 0)
(1.43531 -1.36309 0)
(1.97801 -1.32218 0)
(2.50578 -1.34158 0)
(3.05432 -1.35189 0)
(3.61665 -1.34091 0)
(4.14782 -1.32012 0)
(4.68626 -1.31236 0)
(5.22641 -1.32267 0)
(5.73527 -1.29515 0)
(6.21925 -1.2499 0)
(6.70153 -1.23309 0)
(7.17543 -1.17976 0)
(7.61996 -1.11356 0)
(8.05701 -1.05956 0)
(8.47854 -0.998105 0)
(8.87913 -0.995268 0)
(9.27858 -0.990259 0)
(9.6561 -0.954383 0)
(10.0249 -0.87796 0)
(10.3632 -0.808063 0)
(10.6736 -0.785371 0)
(10.9662 -0.713449 0)
(11.2249 -0.656881 0)
(11.4889 -0.596054 0)
(11.7036 -0.490581 0)
(11.8725 -0.444495 0)
(12.0736 -0.400036 0)
(12.2342 -0.35326 0)
(12.3601 -0.32436 0)
(12.4797 -0.276434 0)
(12.5862 -0.273316 0)
(12.6899 -0.269121 0)
(12.783 -0.229046 0)
(12.8876 -0.181777 0)
(12.9592 -0.0908295 0)
(12.9694 -0.0525588 0)
(12.9903 -0.03533 0)
(12.9773 0.000643452 0)
(12.9646 0.0443391 0)
(12.9477 0.106037 0)
(12.8949 0.18 0)
(12.7899 0.222868 0)
(12.7 0.221961 0)
(12.6082 0.229617 0)
(12.5367 0.236842 0)
(12.44 0.250491 0)
(12.3519 0.294531 0)
(12.2126 0.357697 0)
(12.0518 0.366255 0)
(11.9242 0.367639 0)
(11.7942 0.381558 0)
(11.6472 0.375548 0)
(11.5064 0.396832 0)
(11.3248 0.42775 0)
(11.1433 0.424979 0)
(10.9885 0.439823 0)
(10.8185 0.43678 0)
(10.6547 0.448389 0)
(10.4677 0.457243 0)
(10.2921 0.452207 0)
(10.0966 0.455362 0)
(9.91968 0.447222 0)
(9.7389 0.460869 0)
(9.55223 0.472011 0)
(9.3646 0.480918 0)
(9.14822 0.496598 0)
(8.9417 0.464573 0)
(8.79913 0.449703 0)
(8.61276 0.461049 0)
(8.43273 0.442456 0)
(8.26942 0.446659 0)
(8.0887 0.464568 0)
(7.89068 0.441039 0)
(7.71658 0.400841 0)
(7.54885 0.385069 0)
(7.40149 0.396886 0)
(7.23465 0.418541 0)
(7.05844 0.390922 0)
(6.93189 0.349627 0)
(6.8185 0.353852 0)
(6.67532 0.362409 0)
(6.52286 0.376126 0)
(6.35431 0.39217 0)
(6.20128 0.391373 0)
(6.03123 0.390896 0)
(5.87556 0.367396 0)
(5.75322 0.349065 0)
(5.6232 0.35711 0)
(5.4726 0.33084 0)
(5.36564 0.315344 0)
(5.23786 0.328807 0)
(5.10218 0.333082 0)
(4.966 0.34606 0)
(4.81339 0.337445 0)
(4.67813 0.308459 0)
(4.56377 0.28281 0)
(4.45986 0.272336 0)
(4.36341 0.260862 0)
(4.27251 0.24397 0)
(4.18669 0.230705 0)
(4.10674 0.252545 0)
(3.97982 0.272678 0)
(3.8681 0.253349 0)
(3.76566 0.23532 0)
(3.66986 0.237531 0)
(3.55767 0.21489 0)
(3.48687 0.200592 0)
(3.41538 0.197894 0)
(3.35878 0.206578 0)
(3.25404 0.253488 0)
(3.13878 0.253382 0)
(3.04868 0.216257 0)
(2.98133 0.171192 0)
(2.92679 0.188614 0)
(2.83491 0.215597 0)
(2.74928 0.186738 0)
(2.67984 0.117936 0)
(2.65668 0.08951 0)
(2.61741 0.110591 0)
(2.56341 0.141332 0)
(2.48816 0.16494 0)
(2.4155 0.143103 0)
(2.3702 0.110878 0)
(2.33995 0.129627 0)
(2.28299 0.149511 0)
(2.23541 0.145043 0)
(2.17875 0.173852 0)
(2.09647 0.175344 0)
(2.03236 0.137796 0)
(2.00054 0.126566 0)
(1.95014 0.148757 0)
(1.89177 0.148269 0)
(1.84534 0.145559 0)
(1.76969 0.104912 0)
(1.74329 0.0631446 0)
(1.71478 0.0911405 0)
(1.6656 0.123927 0)
(1.60793 0.111362 0)
(1.57471 0.0968611 0)
(1.54354 0.0920069 0)
(1.51983 0.0773921 0)
(1.49529 0.0915983 0)
(1.43133 0.0888201 0)
(1.40565 0.0689707 0)
(1.3763 0.0758451 0)
(1.337 0.0926959 0)
(1.3061 0.0965647 0)
(1.25497 0.0627877 0)
(1.25435 0.0300272 0)
(1.25131 0.0488478 0)
(1.22298 0.0382234 0)
(1.2172 0.0302806 0)
(1.18976 0.0478425 0)
(1.16305 0.0648774 0)
(1.11822 0.0756323 0)
(1.09548 0.0405562 0)
(1.08552 0.0572138 0)
(1.0367 0.0816896 0)
(1.01235 0.0971222 0)
(0.964289 0.0942411 0)
(0.94105 0.0672152 0)
(0.931423 0.0697978 0)
(0.922989 0.0634465 0)
(0.912479 0.0680853 0)
(0.879856 0.0422386 0)
(0.868539 0.0616708 0)
(0.816151 0.0768251 0)
(0.798291 0.0477832 0)
(0.798264 0.0781188 0)
(0.767506 0.0730927 0)
(0.759064 0.0490993 0)
(0.752807 0.0168283 0)
(0.771007 0.0156741 0)
(0.738366 0.056224 0)
(0.711385 0.0488473 0)
(0.690336 0.022396 0)
(0.658244 -0.0290659 0)
(0.678707 -0.0158832 0)
(0.661399 0.0379668 0)
(0.639554 0.0446808 0)
(0.62197 0.0430401 0)
(0.59878 0.0206543 0)
(0.584483 0.0115934 0)
(0.573379 0.0184101 0)
(0.590149 0.0112566 0)
(0.600394 0.0309427 0)
(0.588043 0.0368493 0)
(0.593651 0.0392438 0)
(0.568479 0.07142 0)
(0.529855 0.0493794 0)
(0.523254 0.0560359 0)
(0.466549 0.0393353 0)
(0.473183 -0.0126714 0)
(0.473579 0.0162676 0)
(0.448637 0.0327708 0)
(0.443657 0.00661503 0)
(0.459348 0.00734289 0)
(0.454891 0.0482727 0)
(0.425504 0.0358976 0)
(0.418518 0.0184715 0)
(0.41001 0.0308359 0)
(0.380855 0.0086221 0)
(0.376437 -0.0157299 0)
(0.40361 -0.0118011 0)
(0.411031 0.0116274 0)
(0.407566 0.0392218 0)
(0.382413 0.0451463 0)
(0.368552 0.0357676 0)
(0.370309 0.0185094 0)
(0.358296 -0.011543 0)
(0.361821 -0.0229274 0)
(0.376273 -0.0134143 0)
(0.382608 0.00719994 0)
(0.388181 0.042934 0)
(0.361295 0.065567 0)
(0.331522 0.0502635 0)
(0.316126 0.0210179 0)
(0.320306 0.00882185 0)
(0.307819 0.000109976 0)
(0.30357 0.0186506 0)