/*--------------------------------*- C++ -*----------------------------------*\
| =========                 |                                                 |
| \\      /  F ield         | OpenFOAM: The Open Source CFD Toolbox           |
|  \\    /   O peration     | Version:  v2012                                 |
|   \\  /    A nd           | Website:  www.openfoam.com                      |
|    \\/     M anipulation  |                                                 |
\*---------------------------------------------------------------------------*/
FoamFile
{
    version     2.0;
    format      ascii;
    class       volScalarField;
    location    "200";
    object      aE;
}
// * * * * * * * * * * * * * * * * * * * * * * * * * * * * * * * * * * * * * //

dimensions      [0 0 0 0 0 0 0];


internalField   nonuniform List<scalar> 
65536
(
1.38834
1.91177
1.6064
2.27649
1.36527
1.57253
1.36287
2.07704
1.02709
1.8006
1.79511
1.72264
2.82498
0.514293
1.53415
1.59256
1.52322
1.47228
3.61343
0.24548
0.911959
1.43285
1.50747
0.706265
1.68768
3.60822
0.448622
3.4611
1.27797
2.96947
3.20737
2.77883
3.33601
3.17337
3.59441
3.82369
3.91524
4.1291
4.10601
4.24259
4.19682
4.24115
4.42496
4.40303
4.49815
4.55161
4.53005
4.65839
4.66688
4.69098
4.82496
4.65415
4.74046
4.7773
4.782
4.75017
4.79839
4.52795
4.85712
4.80754
4.89131
4.78167
4.76711
4.89159
4.85342
4.84356
4.76681
4.89334
4.91214
4.86183
4.85655
4.87006
4.89136
4.96886
4.97768
4.89579
4.98353
4.91914
4.88826
4.90934
4.76309
4.96272
4.8674
4.72762
4.89716
4.92614
4.88997
4.95209
4.96714
4.99167
4.95535
4.95058
4.87747
5.00268
4.91201
4.92874
4.97369
4.93471
4.90622
4.94384
4.92169
4.85825
4.74674
4.90499
4.78317
4.95803
4.95897
4.88987
5.02963
4.91389
4.90014
4.90176
4.95257
4.97771
4.92194
4.82395
4.87904
4.85679
4.77905
4.79216
4.91219
4.94463
4.89957
4.86293
5.01361
4.90656
4.93063
4.9082
4.94761
5.0007
4.9069
5.04045
4.9059
4.9525
4.98895
4.93512
4.96566
4.92539
4.96052
4.93109
4.97874
4.88241
4.99551
4.90407
4.81399
4.92554
4.86761
4.9714
4.97973
4.97142
4.9102
4.83876
4.77758
4.91281
4.89207
4.92977
4.83046
4.889
4.78313
4.8756
4.94908
4.86097
4.9818
4.86751
4.94174
4.9046
4.92546
4.76215
4.85352
4.93754
5.00215
4.87215
4.91603
4.91158
4.90043
4.9332
4.87677
4.80772
4.88575
4.93426
4.934
4.94057
4.8998
4.9492
4.94114
4.9781
4.89672
4.94632
4.94851
4.88072
4.86758
4.89481
4.92711
4.94411
4.88665
4.9281
4.97414
5.00031
4.89892
4.87829
4.79954
4.89026
4.91582
4.87792
4.97545
4.96691
4.93973
4.93113
4.88785
4.89435
4.98099
4.97428
4.90106
4.93592
4.89496
4.8243
4.93152
4.9075
4.96701
4.9239
4.75465
4.93243
4.85117
4.85734
4.90352
4.91829
4.86094
4.88125
4.93275
4.8806
4.97885
4.69272
4.89391
4.91266
4.85979
4.9096
4.89823
4.95225
4.86278
4.89927
4.80018
4.96635
4.92527
4.90876
4.83874
5.0187
4.76802
4.94514
4.93678
4.90109
4.97575
4.97631
4.95372
4.8853
4.78501
4.83364
4.9169
4.71258
4.86697
4.89388
4.70143
4.87829
4.98136
4.85484
4.87895
4.90901
4.92787
4.92231
4.76137
4.80727
4.91005
4.92894
4.85159
4.97005
4.87674
4.89301
4.7093
4.80657
4.74095
4.94709
4.82556
4.90006
4.8332
4.88547
4.95291
4.90025
4.90222
4.9335
4.87111
4.92004
4.99522
4.91484
4.91344
4.94165
4.94638
4.95765
4.85759
4.92129
4.90808
4.86463
5.02567
4.89209
4.95694
4.83593
4.97595
4.86971
4.91752
4.84442
4.79116
4.91604
4.91579
4.75861
4.84681
4.96395
4.82509
4.69366
4.84721
4.92534
4.79925
4.89411
4.91747
4.92139
4.92067
4.91897
4.72495
4.87905
4.88365
4.83471
4.87862
4.96066
4.92698
4.93504
4.96972
4.99535
4.93766
4.89324
4.97412
4.89188
4.91365
4.92428
4.9338
4.9213
4.93377
4.99715
5.07107
4.92402
4.946
4.90301
4.92978
4.88095
4.95093
4.90286
4.84668
4.81946
4.91397
4.85794
4.94331
4.8662
4.87352
4.9553
4.94377
4.89934
4.93232
4.90734
4.97939
4.90293
4.95573
4.946
4.95655
4.93596
4.86805
4.98262
4.91087
4.95929
4.93206
4.95888
4.90683
4.87943
4.91399
4.93925
4.92068
4.87894
4.87855
4.8994
4.86753
4.87038
4.7424
4.87396
4.91642
4.88271
4.89849
4.9437
4.92491
4.94612
4.94688
4.93731
4.8617
5.01272
4.99079
4.9395
4.93114
4.98092
4.89536
4.74767
4.95395
4.91166
4.90285
4.92151
4.89651
4.84099
4.88312
4.89475
4.94798
4.87374
4.98785
4.95088
4.75698
4.91444
4.98776
4.89618
4.7056
4.89685
4.92839
4.91802
4.90965
4.82808
4.88496
4.82759
4.88677
4.9466
4.88213
4.97783
4.73207
4.88092
4.87726
4.7936
4.93651
4.87935
4.9889
4.89244
4.92953
4.8695
4.74943
4.89532
4.9509
4.70401
4.86147
4.81274
4.87736
4.90174
4.94819
4.92436
4.74115
4.90993
4.94524
4.96747
4.89456
4.95464
4.85729
4.71864
4.82181
4.97804
4.92873
4.70911
4.87907
4.84438
4.93877
4.8989
4.93179
4.95124
4.95466
4.88724
5.01451
4.91584
4.90322
4.88829
4.91467
4.93057
4.99502
4.88137
4.94314
4.94323
4.76618
4.93063
4.94062
4.83849
4.95604
4.92304
4.88006
4.88088
5.00512
4.82042
4.9543
4.914
4.94178
4.96735
4.80994
5.01859
4.94511
4.95205
4.92876
4.91747
4.89077
5.00967
4.92958
4.97482
4.91944
4.954
4.91221
4.87122
4.89461
4.83639
2.08031
1.60764
2.15266
1.37717
1.18057
2.80659
1.14304
1.94975
2.44641
1.21236
1.33247
1.54384
2.99462
2.63812
2.4848
0.787167
2.50059
1.39289
3.49644
2.0131
2.59749
1.30111
1.68757
1.54397
1.07041
2.59437
0.841547
2.77917
1.25019
2.4239
2.51475
2.11569
2.39942
2.20925
2.44133
2.41293
2.36987
2.57871
2.43773
2.25389
2.2252
2.17883
2.40013
2.01523
2.28161
2.1336
1.95887
2.25258
2.00137
2.17064
2.40335
1.8485
2.25766
2.13378
2.12688
1.99867
2.11965
1.39592
2.33854
1.95339
2.1678
1.74269
1.62148
1.97999
1.78862
1.85731
1.5486
1.94715
1.96471
1.83063
1.80367
1.83538
1.90982
2.13171
2.12533
1.79472
2.26403
1.99353
1.88558
2.02848
1.5616
2.3385
1.9147
1.62148
2.15871
2.03535
2.01389
2.10662
2.04937
2.1294
1.99979
1.99878
1.78743
2.25409
1.92169
1.98926
2.15094
1.94706
1.87552
2.04948
2.03163
1.90954
1.65066
2.0474
1.68213
2.15716
2.07124
1.81225
2.35018
1.87502
1.95134
1.98691
2.1584
2.24212
2.14213
1.85342
2.13194
2.03763
1.95164
1.8902
2.10097
2.07148
1.90784
1.7758
2.27256
1.89927
1.99791
1.82502
1.88083
2.10503
1.77777
2.31279
1.72677
1.89295
1.99822
1.93814
1.95058
1.78797
1.92845
1.86295
2.12233
1.86322
2.15158
1.93994
1.67484
2.00937
1.81465
2.16057
2.08943
2.15118
1.95296
1.76937
1.61016
1.97681
1.91374
2.06988
1.73125
1.95147
1.69774
1.9544
2.10287
1.77847
2.19434
1.75866
2.02981
1.91593
2.05472
1.53814
1.9446
2.10498
2.45722
2.0304
2.03698
2.11443
2.00792
2.22859
1.97545
1.92197
2.03379
1.96251
2.03186
1.99438
1.8971
2.02759
2.10573
2.15382
1.88481
2.09746
2.08997
1.90362
1.91315
2.01689
2.12109
2.23107
1.97008
1.95514
2.19373
2.33292
2.04865
1.92221
1.78539
1.98962
2.00241
1.98488
2.2559
2.16771
2.08824
1.97293
1.90487
1.78356
2.0715
1.99406
1.8284
1.97516
1.95363
1.96732
2.19268
1.99759
2.14613
2.04973
1.5843
2.12301
1.84726
1.82913
2.06342
2.11297
1.88281
2.00135
2.21864
2.01074
2.41319
1.51809
2.13206
2.14307
1.79012
2.05349
2.0255
2.14449
1.83757
1.9802
1.69027
2.15975
1.98642
1.93531
1.74932
2.42981
1.64463
2.15278
2.10049
1.84296
2.01741
2.15502
2.09117
1.94143
1.80702
1.93526
2.21807
1.57054
2.06626
2.06909
1.52783
2.05425
2.33613
1.85484
1.84075
2.02111
2.07924
2.14765
1.65522
1.85798
2.05906
2.20767
1.84226
2.29122
2.05848
2.17476
1.65717
1.89793
1.70008
2.22439
1.7259
2.00735
1.79068
1.94273
2.34083
2.00647
2.07342
2.04812
1.81886
2.03272
2.2222
1.97851
1.91954
1.96526
2.02755
2.06825
1.77677
2.03234
1.93823
1.82939
2.32302
1.87275
2.0964
1.66513
2.19811
1.78802
2.06663
1.84044
1.83733
2.12786
2.13909
1.67868
1.93896
2.32785
1.83424
1.48758
1.92784
2.08312
1.68348
2.03112
1.98039
2.01898
2.11955
2.16486
1.55145
2.02457
2.03171
1.77781
2.02221
2.1644
1.96202
2.04392
2.17373
2.20628
2.12556
1.92589
2.24985
1.95109
1.9594
1.86927
1.89625
1.88074
1.89204
2.04493
2.41176
1.84472
1.99566
1.91927
2.00824
1.93973
2.0722
1.96876
1.87036
1.67674
1.98096
1.78026
2.07294
1.82986
1.82627
2.04649
2.02915
1.76078
1.90073
1.81796
1.99708
1.85783
2.0127
2.00554
2.03914
1.99283
1.85064
2.16879
1.9338
2.12302
1.95617
2.10799
1.97841
1.92826
1.99968
2.12175
2.03428
1.99959
1.95921
2.01428
1.85999
2.01361
1.6103
1.92417
2.03185
1.92986
1.99012
2.02342
2.01405
1.95012
1.99541
2.0163
1.72192
2.28249
2.2933
1.93638
1.96232
2.20318
1.9003
1.47583
2.14161
1.99961
2.00808
2.07671
2.11486
1.95287
2.08244
2.01412
2.29799
1.91053
2.28938
2.19157
1.57842
2.10382
2.30776
2.07156
1.46239
2.01391
2.01985
2.0932
2.02402
1.70633
1.96358
1.72139
1.90881
2.23714
1.97063
2.34384
1.69242
2.14896
2.02068
1.59023
2.12944
1.75681
2.16538
1.76238
1.93567
1.87575
1.60117
2.02965
2.24298
1.59362
2.04519
1.78985
1.9299
1.93865
2.1348
2.11998
1.62772
1.98333
2.04801
2.09387
1.82193
2.14605
1.89492
1.63289
1.88699
2.35618
2.17107
1.50487
1.9799
1.79847
2.10781
1.9541
2.04841
2.13596
2.13317
1.85826
2.31002
1.95241
1.97679
1.84208
2.0037
2.05673
2.2799
1.92333
2.07999
2.06921
1.45957
2.04112
2.03968
1.7007
2.06301
1.95296
1.89964
1.89314
2.30075
1.68619
2.13366
1.96525
1.98976
2.14534
1.71065
2.38965
2.10126
2.0344
1.98448
1.91717
1.77126
2.16864
1.88493
2.07841
1.93511
2.11184
1.86954
1.89477
2.01309
1.89911
2.8856
1.25577
1.48493
2.29218
3.6631
0.501777
3.62873
0.318905
3.5965
1.49186
4.07164
1.4091
3.76772
0.93733
0.866918
3.32134
0.993322
3.5546
1.84426
1.59718
0.543921
3.33327
1.14076
2.09862
1.30719
3.45768
0.998689
2.73991
2.5588
2.53396
2.43308
2.15763
2.46662
1.59181
2.33207
1.69233
2.18308
1.66803
1.82911
2.44534
1.83107
1.71729
1.55736
2.16079
1.33133
1.87981
1.70719
1.42619
1.86372
1.42263
1.21036
1.9317
1.24264
1.6114
1.43331
1.55484
1.43402
2.3446
0.910992
1.56059
1.18689
1.82542
1.86674
1.33281
1.67399
1.43635
2.00625
1.3276
1.32124
1.46177
1.58368
1.61861
1.36916
1.07846
1.18577
1.67288
0.815133
1.22786
1.52661
1.2881
2.00983
0.80492
1.70865
1.94119
1.19749
1.64448
1.20309
1.1186
1.32202
1.16312
1.33816
1.32202
1.51779
0.894863
1.2864
1.1932
0.959427
1.42981
1.50439
1.34342
1.29036
1.4989
1.85779
1.46733
1.85599
1.14075
1.21209
1.62329
0.906858
1.65005
1.45362
1.36407
1.1266
1.20389
1.31103
1.66498
1.15829
1.40825
1.51898
1.63007
1.28442
1.32821
1.45727
1.75793
1.07956
1.43551
1.16012
1.59728
1.56973
1.25012
1.69346
0.812383
1.78345
1.46908
1.29422
1.09257
1.34951
1.57418
1.45362
1.56332
1.09996
1.44137
1.40438
1.52163
1.91449
1.38578
1.58657
1.06559
1.31957
1.01468
1.42765
1.77447
2.01807
1.57575
1.57526
1.30318
1.78906
1.56753
1.84604
1.45831
1.28253
1.74077
1.0836
1.65226
1.28616
1.40987
1.27972
2.22758
1.51965
1.57148
0.785269
1.34956
1.59326
1.20057
1.4589
0.968691
1.54513
1.42835
1.21254
1.51678
1.18171
1.3937
1.57377
1.52317
1.25722
1.33805
1.66083
1.18111
1.22361
1.53045
1.54992
1.48874
1.30822
1.01468
1.33592
1.71133
1.15555
0.834797
1.14804
1.41461
1.39245
1.32382
1.4826
1.252
0.916397
1.11326
1.18471
1.48362
1.28603
1.56752
1.04404
1.31797
1.45046
1.48277
1.55172
1.37105
1.14646
1.41121
1.24138
1.31633
2.01078
1.30722
1.73158
1.74225
1.30217
1.34382
1.87311
1.62326
1.10657
1.56017
0.932877
2.2283
1.27633
1.28695
2.02124
1.39929
1.36189
1.32458
1.67162
1.43582
1.862
1.17739
1.39248
1.56404
1.80423
0.825434
1.93253
1.21067
1.1128
1.67992
1.59141
1.09181
1.28414
1.59409
1.71966
1.45616
1.12063
2.15636
1.38634
1.63467
2.25526
1.44765
1.07157
1.66849
1.84543
1.32412
1.33691
1.25681
2.18304
1.56118
1.45022
1.02269
1.75398
1.10997
1.33205
1.22014
1.98514
1.67058
1.74831
1.15027
1.92636
1.42961
1.76381
1.58249
0.8357
1.4705
1.15633
1.4338
1.77476
1.382
1.18056
1.39771
1.59823
1.49404
1.24499
1.25875
1.59906
1.29661
1.5141
1.5869
1.04391
1.47392
1.2313
1.8079
1.02447
1.81884
1.24741
1.70316
1.64934
1.35258
1.26736
1.91627
1.4495
0.939976
1.76825
2.22692
1.51316
1.41628
1.95746
1.24784
1.57016
1.52672
1.24839
1.25215
2.2916
1.59837
1.39403
1.86963
1.20856
1.21135
1.5911
1.36597
1.11693
1.26593
1.12923
1.52719
1.04875
1.33904
1.41567
1.64311
1.55203
1.42869
1.55411
1.4774
0.76898
1.68068
1.30871
1.31346
1.34
1.45843
1.6347
1.62189
1.44236
1.90747
1.44003
1.73721
1.30625
1.55587
1.60285
1.2599
1.24252
1.81558
1.47061
1.60534
1.57894
1.47612
1.31686
1.35325
1.55784
1.64906
1.64293
1.19276
1.41308
1.11869
1.45033
1.25268
1.3899
1.44523
1.51659
1.17921
1.40802
1.28918
1.40382
1.4532
1.85699
1.5081
2.06518
1.66132
1.4669
1.43789
1.28234
1.36932
1.12473
1.50085
1.31469
1.23544
1.82648
0.975843
0.816379
1.67293
1.43857
1.02105
1.60498
2.27251
1.30189
1.47504
1.3593
1.28876
1.1674
1.5354
1.35513
1.57217
0.878555
1.67368
1.15111
1.18282
2.12493
1.29194
1.06803
1.28756
2.27587
1.54242
1.61243
1.25957
1.36039
1.85067
1.34777
1.86135
1.57952
0.961079
1.38861
1.02129
1.92308
1.14787
1.40202
2.1548
1.21372
1.82069
1.18815
1.78433
1.5574
1.6412
2.00814
1.50528
1.2657
2.05901
1.39189
1.74377
1.58479
1.59958
1.23033
1.31941
1.90727
1.51824
1.33818
1.27981
1.67831
1.13372
1.67983
1.95872
1.66147
0.954732
1.27428
2.17539
1.49697
1.77376
1.25148
1.52429
1.35621
1.22256
1.17613
1.63274
1.04334
1.55843
1.42413
1.83797
1.46737
1.3173
0.987397
1.48671
1.24959
1.27561
2.27342
1.33589
1.38383
1.82406
1.3578
1.59654
1.49129
1.55276
1.07041
1.96239
1.12124
1.22004
1.42968
1.17525
1.84008
0.892907
1.1986
1.35049
1.26736
1.39209
1.71685
1.13968
1.43903
1.29016
1.43766
1.20451
1.79971
1.55303
1.43945
1.63316
2.49284
3.37111
3.60543
1.18505
3.2854
0.904038
3.80718
3.66315
0.73188
4.08051
0.849721
4.67254
0.952768
4.14762
1.29925
3.90842
0.823048
3.4303
1.78414
3.07595
2.66467
2.22587
2.1957
1.40357
2.3363
1.68526
3.13714
1.98965
1.76087
2.02241
2.05191
2.0292
1.81724
2.74265
1.00373
3.1785
0.850539
2.70654
1.38385
0.941212
1.6625
2.16808
1.60183
1.18966
1.99086
1.09423
1.69589
1.45924
1.05503
1.39278
1.74529
0.838064
1.7003
1.18884
1.3813
1.26361
1.51453
0.23833
1.94694
0.88279
1.28823
0.513661
0.522252
0.925258
0.57504
0.917857
0.0108328
0.984652
0.956348
0.964476
0.898998
0.809617
1.18871
1.31204
1.16391
0.788888
1.69522
1.30326
0.788317
1.18573
0.417916
1.95153
0.773343
0.423209
1.28396
0.688271
1.36021
1.36154
0.906054
1.03071
1.02484
1.25624
1.16699
1.70075
1.21924
1.16038
1.52579
0.962138
0.86527
0.735466
1.09447
0.872777
0.624194
1.10021
0.571165
1.40487
1.43402
0.913552
1.60804
0.872804
0.89767
1.12247
1.63208
1.35624
1.17229
0.862879
1.66384
1.49074
1.14369
0.734102
1.16725
1.09162
1.06089
0.59975
1.4332
1.16393
1.5593
0.717493
0.769447
0.878584
0.702102
1.84093
0.585394
0.905939
0.984434
1.29477
0.869949
0.803236
0.939095
0.817146
1.57404
1.23796
1.13244
1.16506
0.49866
1.13286
0.871483
1.47056
1.04055
1.66938
1.18068
0.525788
0.0889352
0.751458
0.838643
1.2204
0.671732
0.916121
0.530181
1.06931
1.21642
0.628147
1.4192
0.893458
1.28698
1.19074
1.29069
0.00719572
1.03812
0.952583
2.06218
1.45019
0.995256
1.51652
1.05987
1.81319
1.25296
1.49369
1.55334
0.868605
1.40596
1.13677
0.941584
1.06339
1.44507
1.2432
0.719476
1.372
1.33679
0.928824
0.930047
0.908367
1.09391
1.52708
1.29582
0.607197
1.38815
1.9413
1.63648
1.19009
1.25615
1.14978
0.904654
1.35742
1.77916
1.36939
1.37143
0.869062
1.30563
0.820657
1.46974
1.05673
1.19134
1.11957
1.08881
1.35692
1.55544
1.15444
1.23223
1.31867
0.415213
1.11857
0.322102
0.690533
1.41278
1.40056
0.635851
0.964116
1.6434
0.892857
1.70661
0.232452
1.46981
1.26214
0.381419
1.16852
1.2229
1.22953
0.870681
1.11487
0.452465
1.40304
1.16956
0.911344
0.720434
2.02795
0.56519
1.38522
1.61445
0.864292
0.845284
1.4958
1.24323
0.917833
0.873483
1.38207
1.71959
0.280383
1.43896
0.892973
0.0910293
1.16998
1.47448
0.853901
0.524293
1.25877
1.2309
1.35011
0.0486535
1.21418
1.17188
1.83067
0.68094
1.58439
1.38343
1.56602
0.561648
0.877161
0.788833
1.42817
0.500355
1.22702
0.753326
1.02499
1.7785
1.04085
1.47468
1.06877
0.695452
1.17325
1.432
1.09883
0.637984
0.899881
1.21808
1.19267
0.876678
1.08582
0.976983
1.06085
1.57347
1.25165
1.3406
0.709161
1.71432
0.528417
1.43752
0.952257
1.04846
1.20425
1.26431
0.241601
1.21035
1.74891
0.917858
0.396987
1.34019
1.19366
0.470595
1.50312
0.868451
0.945785
1.38078
1.63817
0.570933
0.983504
1.06661
0.343166
1.47701
1.42652
0.96326
1.08448
1.56704
1.32494
1.58519
1.03433
1.56725
1.37141
1.18074
0.800989
0.873635
1.16279
0.890923
1.05072
1.88029
0.768375
1.26039
1.22511
1.19139
0.947921
0.784994
0.933913
1.41812
0.609987
1.12186
0.620127
1.11052
0.929414
0.860476
1.34656
1.21175
0.524285
1.18938
0.80466
0.672634
0.914143
1.23864
1.18702
0.712899
0.726642
0.772582
1.45785
1.25803
1.51301
1.1356
1.20984
1.13626
1.13879
1.00886
1.48236
1.10232
1.39305
1.31783
1.14159
0.546895
0.950198
0.391565
0.910568
1.05722
1.21854
1.44801
1.15205
1.54393
0.896635
1.14446
1.37934
0.544269
1.6826
1.72746
0.681444
1.15471
1.49159
0.963057
0.197327
1.37388
0.948319
1.15833
1.34789
1.22896
0.83546
1.22708
0.981841
2.01109
0.948524
1.36897
1.42998
0.0999949
1.32541
1.55197
1.33999
0.0522603
1.09189
0.92955
1.29939
1.30115
0.844497
1.42171
0.555002
1.0002
1.72997
1.3457
1.90947
0.802083
1.82817
1.30189
0.291559
1.3334
0.672586
1.17123
0.626798
0.986124
0.855008
0.504901
1.22093
1.46239
0.448546
1.32205
0.770951
0.848581
0.798634
1.41768
1.29487
0.818423
1.20962
1.10105
1.23442
0.829386
1.59675
0.851667
0.541975
0.982979
1.83859
1.28178
0.00480345
1.10581
0.670182
1.41235
0.991387
1.27116
1.27868
1.41027
0.927039
1.57738
1.06211
1.31417
0.657462
1.06082
1.28966
1.67549
1.01003
1.35497
1.39602
0.0607476
1.20109
1.0821
0.668218
1.26423
0.82785
1.13786
1.04066
1.56009
0.370533
1.49157
1.52012
1.02871
1.35505
0.291325
1.69624
1.46642
1.28226
1.42135
1.31982
0.672973
1.33359
1.26321
1.03938
0.888831
1.20199
0.632433
0.968539
1.05659
0.770384
0.184281
2.24152
1.13505
2.22099
0.811736
5.04197
1.29868
2.46026
0.151619
4.03965
1.6407
3.00655
0.976159
0.44164
3.56349
0.31387
4.67451
2.50909
4.62122
0.43684
2.35156
0.379771
4.24806
1.56004
3.2919
0.29617
3.45051
2.0948
3.37689
2.71104
2.07634
1.87417
0.84715
2.47455
1.8166
0.65394
3.18679
0.285006
2.76072
2.50026
1.64369
0.847854
1.57152
1.23328
1.4131
1.29228
1.03435
1.45659
1.50153
1.3522
0.930275
1.95666
0.784414
1.2829
0.834155
1.094
1.1604
2.62997
0.0431476
1.25572
1.07557
1.51181
0.929395
0.628747
1.24412
1.11921
1.78745
0.683728
0.905013
0.900142
1.12881
1.17753
0.657969
0.68384
0.716277
1.25813
0.394876
0.794726
1.38494
0.949867
1.79155
0.0957014
1.79651
1.82913
0.991422
2.14804
1.09602
0.940843
1.42465
1.18717
0.977266
0.700646
0.939334
0.598351
0.841758
0.821398
0.239351
0.802225
1.14175
1.39595
0.821793
1.59388
2.05638
1.21668
2.01737
0.657951
0.526238
1.32553
0.857914
1.35063
1.36336
1.13743
0.681258
1.27966
1.22889
1.40393
0.349834
0.724786
1.90557
1.43001
0.714953
1.00704
1.09742
1.75435
1.08483
1.13166
0.350223
1.35546
1.12285
1.29202
1.29634
0.443461
1.54657
1.00545
0.801191
0.0770261
0.748712
0.785364
0.858396
1.27653
0.483046
1.06406
1.32461
1.0391
1.95581
0.978859
1.17033
0.418139
0.921372
0.0273339
0.576941
1.60079
1.70761
1.35069
1.28534
0.769024
1.18303
0.996198
1.69158
0.895512
0.953462
1.54372
0.669492
1.18809
0.629064
0.783922
0.821685
2.26954
1.01815
0.88563
0.412467
0.900645
1.32638
0.67872
1.33879
0.32516
1.04543
2.25926
0.0673223
1.18004
0.495482
0.996274
1.28261
1.16235
0.708231
0.999069
1.57243
0.756325
0.68626
1.22366
1.11627
1.43636
1.02324
0.470982
0.85573
1.64132
0.728412
0.0325663
0.234094
0.808651
0.0865213
0.574822
0.891133
0.295217
0.47851
1.08482
0.661539
1.29858
0.602843
0.988013
0.00915905
0.871093
0.696277
0.840103
1.11281
1.9764
0.622284
1.13562
1.07213
0.963711
2.16995
1.0549
1.24409
1.37659
0.6841
0.880839
1.92103
1.25733
0.427166
1.10357
0.503848
2.37548
0.706889
0.938292
1.63342
1.03482
0.76208
1.72302
1.13834
0.972613
1.7752
0.646303
0.859845
1.21808
1.50611
0.0824028
2.11975
1.18598
0.620245
1.34205
1.34126
0.638495
0.859975
1.29488
2.01988
0.833825
0.454804
2.16087
0.776149
1.59967
2.21669
1.19728
0.987311
1.52003
1.65541
0.842937
0.700453
0.930853
2.7794
1.19876
1.11566
0.237367
1.76047
0.172108
0.712344
0.673389
2.11799
1.26007
0.839819
0.637488
1.75541
0.911883
1.54506
1.36695
0.422737
1.27068
0.486568
1.00478
1.27769
0.955561
0.803401
1.20757
1.62117
1.19292
0.891381
0.899006
1.22087
1.14412
1.26489
1.20814
0.898769
1.0025
0.808466
1.50716
0.28873
1.79988
0.723933
1.36394
2.09835
1.10175
0.799272
1.50371
0.856245
0.643494
1.66083
2.52224
0.91511
1.04124
2.06222
0.524561
1.31757
1.13365
0.706787
0.363048
2.92839
1.45549
1.13343
1.71066
0.561683
0.635475
1.16015
1.29696
0.733311
1.12078
0.771117
1.31649
0.666167
0.823107
0.693023
0.996175
0.974382
0.670597
0.86226
0.945142
0.704422
1.49877
0.641563
0.664061
0.779282
1.51686
1.80073
1.55879
0.780793
1.65245
1.04327
1.65456
1.03826
0.815436
1.02398
0.529228
0.906047
1.55069
0.664525
1.30269
1.45841
1.21323
0.567451
0.739154
1.5393
1.59569
1.62225
0.695146
0.76193
0.279156
0.369776
0.724869
0.833247
0.729511
1.67513
0.0204622
0.737599
0.51726
0.726906
0.910649
1.62806
1.45537
2.04459
1.02396
0.941313
0.874753
0.498559
1.03141
0.482302
0.961341
0.634469
0.403644
1.49656
0.376372
0.487439
1.48141
0.722054
0.623136
1.30812
2.42916
0.833577
1.28461
0.91996
0.354145
0.823416
1.52308
0.841199
1.36638
0.0387623
1.23489
0.96345
0.79249
2.08134
1.02043
0.774536
1.13058
2.43472
1.07244
1.12041
0.998983
1.04191
1.24362
0.711274
1.69111
1.00239
0.190737
0.833357
0.209533
2.369
0.248452
0.972767
1.75356
0.698931
1.46506
1.08953
1.5453
0.924575
1.21453
2.12522
1.07079
1.03235
2.2117
0.906228
1.43047
1.20148
1.35706
0.469352
0.953694
2.34705
0.907141
1.10587
0.715896
1.27586
0.498508
1.49594
2.04242
1.58409
0.57075
1.18219
1.94165
0.963719
1.38537
0.234891
1.00997
0.895291
0.962602
0.83675
1.39205
0.856366
1.28318
0.79469
1.49292
1.13216
0.797539
0.293759
1.04006
0.586961
0.591034
2.39832
1.05317
1.10427
1.41734
0.543186
1.20421
0.990132
1.11956
0.644784
2.08073
0.569727
0.403724
1.04698
0.573986
1.63755
0.813586
0.785482
0.815668
0.677326
0.615338
1.39544
0.820855
0.577462
1.18601
1.55816
1.13999
1.53309
1.27293
1.20485
1.49607
5.5553
1.02247
2.78227
3.2772
1.58885
1.52185
2.13868
2.98164
5.28603
0.842996
2.74931
0.434351
6.08677
4.4555
3.0028
0.633032
3.73924
4.15591
0.0819298
3.19569
1.96053
3.89044
0.901188
1.30043
0.623224
5.33781
1.06156
3.6616
1.65457
4.37191
1.59146
2.05271
3.00449
0.953146
3.06882
1.46051
1.34281
2.55573
1.01564
0.488568
1.46666
1.66226
1.90249
1.13476
0.409378
1.72969
0.981867
0.638292
0.983615
1.10734
1.34179
0.13297
2.04447
1.36642
0.812639
0.858655
1.43601
2.21202
1.48591
0.767228
0.802497
0.722048
0.54819
0.520211
0.252077
1.00207
1.21116
0.318513
0.548993
0.932366
0.998394
1.08728
0.725086
1.00134
1.06584
0.676079
2.06726
0.972154
0.226092
1.02933
0.375894
2.14954
0.0613634
1.20503
1.16074
2.28295
0.590045
0.93412
0.145337
0.435542
0.630361
1.00041
1.13654
2.36751
0.58112
0.510405
1.05484
0.92137
0.256382
0.214069
0.745187
0.048564
1.69372
0.383419
1.54439
0.721988
1.36171
0.84526
2.5488
0.489413
0.114352
0.641368
1.44414
2.11598
0.30141
0.455689
1.84167
1.1905
2.06873
0.973589
0.803848
0.703016
0.737815
0.247217
2.14646
0.588821
1.48809
0.205343
0.379016
0.339077
0.770664
2.72506
0.0338922
0.399572
0.589231
0.492061
0.38246
0.445672
0.408258
0.299898
1.67347
1.23773
2.02937
0.945795
1.60373
0.795997
0.775413
1.23575
0.207735
1.47278
1.28468
0.0626962
1.06458
0.254593
0.504963
0.963594
0.684999
0.434417
1.01253
0.767768
0.760542
0.323723
1.15772
0.752348
1.29293
0.932663
0.852929
1.76099
0.892973
0.430518
3.03809
1.15719
1.14768
1.23599
0.535744
1.66344
0.766049
2.40234
0.352116
0.244158
0.8711
0.671203
0.490922
1.39104
1.3901
1.59578
0.135534
1.03958
1.14173
0.521028
0.448855
1.21339
0.521489
1.21019
0.888049
0.297999
1.42421
2.40525
1.81535
0.399851
0.267606
0.974006
0.724139
0.6785
2.03522
0.745198
1.33941
0.428656
0.928709
0.456815
1.03583
0.559722
1.25732
1.11713
0.680358
2.01901
1.16919
0.562761
0.632352
0.847337
1.67119
0.578519
1.09356
0.392986
1.40964
1.18224
1.80585
0.54401
0.964187
0.435935
0.903725
1.3317
1.17817
0.649515
0.219952
0.478869
0.990818
2.36001
0.490393
0.781709
1.17761
1.13298
1.04624
0.701456
0.558004
2.33958
1.51595
0.413146
1.31724
0.520752
1.06089
1.16363
1.09843
0.378657
2.16336
1.26983
1.65745
1.51972
1.47743
1.89035
1.66022
0.951001
2.26875
0.535975
0.133837
0.818415
1.17879
1.17299
2.91033
1.14204
0.957817
1.80062
0.204348
1.12412
1.14245
1.30673
1.61258
0.12937
0.0724681
1.04877
0.0742948
1.26339
0.297516
0.46745
1.60096
0.131557
1.09528
0.39095
0.471618
1.02698
1.70593
0.694887
0.181418
0.433229
0.748357
0.554385
0.26817
0.327682
0.553803
1.00084
2.29217
1.03503
1.02042
0.0500446
1.75633
0.438273
1.28851
0.308567
2.13484
0.530408
0.961371
0.703907
0.80907
1.86416
0.196858
2.23012
1.11644
0.831658
1.71363
1.53364
0.6597
0.847466
1.04442
0.948937
2.52167
0.198127
0.572706
1.49301
1.27518
1.61509
1.17373
0.807723
1.43411
1.71169
1.24039
0.811231
1.9471
1.08511
1.10204
0.531862
0.567775
0.97865
1.1658
1.20779
3.15033
0.502382
1.18527
1.0333
0.758545
0.223914
1.74028
0.524482
1.46401
0.199653
0.897397
0.0476735
0.476523
0.14121
0.460039
1.06186
0.293635
0.56067
1.29591
0.511514
0.116323
0.429803
1.24292
1.00699
0.220552
1.33312
0.183519
1.19223
1.11079
1.39436
0.247327
0.819739
1.06798
0.963601
1.6876
0.790179
0.738808
0.962416
0.878005
1.21966
0.28835
0.182126
1.2762
0.630574
0.702345
0.952864
1.60705
0.757102
1.14186
0.670499
1.19293
1.15749
0.0842598
1.86885
1.38766
0.512751
1.34485
1.23117
0.288468
1.72651
1.50061
0.436347
0.842744
1.21269
0.173332
1.13336
1.39801
0.583121
2.61104
1.04669
1.92838
1.31911
1.44392
0.764431
1.66129
0.641772
1.8523
0.670206
0.558033
0.898918
1.02118
1.10664
1.48809
0.0833028
1.09885
1.69011
0.844955
1.87586
2.06974
1.79972
0.392742
0.715933
0.897333
0.246624
0.577441
0.139098
0.877014
0.522422
1.64879
1.04793
2.12576
1.58172
0.720198
0.259768
0.793208
0.315509
1.34744
0.655938
1.91957
0.716137
0.500667
0.931952
0.341723
1.35597
0.330614
1.75769
0.475972
2.31707
0.953836
1.07131
0.865114
0.161623
0.836183
0.635197
1.55401
0.90042
1.16238
0.77288
2.22309
0.895753
1.17128
0.906811
0.609394
1.06968
1.46436
1.15353
1.05214
1.28556
1.67004
0.595803
0.776347
0.497455
1.08284
0.791491
1.08292
1.01459
1.96215
1.66465
1.26115
1.44414
0.695181
1.32863
1.19515
2.6715
1.4433
1.06404
1.07856
1.19675
0.402235
0.774576
1.44733
0.63659
0.0772288
0.567633
0.69432
0.818055
0.48681
1.12718
1.72317
0.532944
2.77941
5.4175
4.90647
1.16808
2.98891
2.15468
0.847874
4.64653
5.52467
2.12398
2.03852
3.88458
2.61423
1.57321
2.47445
1.19213
2.95666
0.285622
0.758241
0.427466
3.25471
1.88818
1.8852
1.47928
1.60968
1.72206
3.54931
7.03695
2.36327
0.71274
0.84566
2.0623
0.150357
1.08966
1.67718
0.911728
1.47093
2.13994
1.76661
0.665666
0.241351
2.16383
2.00007
0.754653
1.47456
2.06282
1.41015
1.54302
1.18588
1.89762
0.0111255
1.21213
0.146711
0.946974
1.10942
1.55167
0.722073
0.316184
1.5411
2.25224
0.84211
0.408591
1.3592
0.988766
1.15159
0.65495
0.700979
0.114453
0.805416
1.23019
0.362262
0.302616
0.598918
1.30555
1.22937
0.168179
1.30545
0.957567
2.54291
1.15954
1.52242
1.28268
0.272679
3.12583
0.705727
0.707495
1.73072
1.30523
0.888874
0.813541
1.53416
1.74638
0.549353
1.3426
0.672115
0.491042
1.05161
0.794683
0.624175
1.8169
1.32187
1.37304
1.44311
0.966776
0.410493
0.951438
2.09061
0.593811
1.07927
0.910176
0.396967
2.10092
0.358298
1.00136
1.22774
0.450916
0.925147
1.10564
0.641678
1.08661
0.970526
1.44279
1.42753
1.12429
0.0626591
1.32324
0.861779
0.713883
1.29259
2.17792
1.1616
1.20081
0.635093
0.373367
0.361576
0.437251
0.66787
1.43407
0.161671
1.66404
2.11062
0.73314
1.20847
0.805131
1.55425
0.170026
0.29335
0.497863
0.152059
1.76912
1.33904
1.1178
1.18652
0.864464
1.08377
0.445476
0.970258
0.179948
1.07085
1.89012
0.979463
1.8501
0.326836
0.654614
0.693488
0.981386
0.706562
0.836857
2.94926
0.361779
0.952054
0.669761
1.08271
1.10395
0.364754
0.91367
0.910574
0.658739
0.238485
0.866537
1.47038
1.52669
0.165165
1.42909
1.4339
0.461805
0.311731
1.00206
0.974619
1.4472
1.02127
0.709965
0.327012
1.88813
0.251361
1.81883
1.03669
1.22816
1.18057
0.279731
0.643246
0.722188
1.74102
1.20688
1.48927
1.22157
0.461391
0.566315
0.629334
0.726162
1.47397
0.501455
0.898007
1.34279
0.803169
0.976643
1.34171
0.885922
1.54273
1.40472
0.981707
1.74687
0.46302
0.745383
2.8269
1.10741
0.921607
1.04327
0.418346
1.53733
0.262785
0.94491
0.119338
0.759164
0.348827
0.322306
1.02643
0.793594
1.32322
0.290459
0.530012
1.1448
1.61458
1.66198
1.8855
2.09793
0.78443
1.22304
0.999971
0.308064
0.276751
0.929225
0.682645
1.54233
0.425188
1.72724
0.08018
2.28331
0.950664
0.698055
1.88107
0.997304
2.23632
0.763956
0.276712
0.268192
0.643277
1.96525
1.08929
0.0130681
2.52546
0.670514
0.957466
0.365623
1.58188
1.56043
0.524327
0.888069
1.93369
0.506546
1.60324
1.34785
0.413889
1.30461
0.749268
1.31116
1.01422
0.358507
1.26431
0.793398
1.69399
1.1783
0.67517
0.857093
0.703455
1.29423
1.12243
1.43672
1.74934
0.498838
0.523935
1.29391
0.0323706
2.7336
0.560442
1.36275
0.954878
1.07813
0.486362
1.20153
0.395897
0.203051
1.80143
1.09853
1.19893
0.939902
1.25682
0.0289073
1.1167
0.95848
0.788935
0.835072
1.13861
1.4745
1.06758
0.610982
0.742543
0.0147358
1.77616
1.18098
0.119342
1.48193
0.0367809
0.419995
1.59317
0.807743
0.0863648
0.488251
1.0097
0.567508
0.160881
0.942718
3.26214
1.26494
0.0524783
0.301937
0.583735
0.98456
1.78058
1.50059
0.956676
1.64169
0.977502
1.80177
0.913195
0.117894
0.644297
0.165971
0.140292
2.55989
0.556395
1.13988
1.50493
1.3992
0.258451
0.402445
1.77374
1.50154
1.43973
0.774146
0.646645
0.037626
0.514402
1.04176
0.555671
0.51069
0.768372
0.394964
0.393996
0.0185715
0.545032
0.945667
1.74819
2.22154
1.70701
1.11506
0.406171
0.308376
1.25475
0.928845
0.54434
0.824772
0.0640023
0.294348
1.3342
1.1658
0.895833
1.87895
0.365273
0.540692
1.26604
1.28612
1.34725
1.27617
0.940398
0.00774479
0.145258
1.06017
1.29267
1.56938
2.17185
0.408619
1.43177
0.0517722
1.13874
1.01174
0.650235
0.67392
0.496757
0.519962
0.280751
0.615657
1.09538
2.19462
0.471656
1.89804
0.256204
0.965031
0.370679
1.40743
1.00384
1.15112
1.03875
0.0538711
0.434508
1.60399
1.61295
1.60073
0.605474
0.705468
1.20303
0.308787
2.12021
1.23815
0.311169
0.878491
0.538443
1.14998
0.00182231
1.00524
1.21022
0.682997
0.92042
0.71684
1.29763
0.737641
1.67966
1.53081
1.84406
1.94749
1.0413
1.72117
1.02724
1.85182
0.339526
0.728442
1.69767
0.957152
0.453507
0.893791
1.70967
0.842142
0.367075
1.23682
1.02312
0.425417
0.611304
1.36767
0.377375
0.0457715
1.28883
1.06705
1.04828
1.75162
0.866161