/*--------------------------------*- C++ -*----------------------------------*\
| =========                 |                                                 |
| \\      /  F ield         | OpenFOAM: The Open Source CFD Toolbox           |
|  \\    /   O peration     | Version:  v2012                                 |
|   \\  /    A nd           | Website:  www.openfoam.com                      |
|    \\/     M anipulation  |                                                 |
\*---------------------------------------------------------------------------*/
FoamFile
{
    version     2.0;
    format      ascii;
    class       volScalarField;
    location    "200";
    object      aU;
}
// * * * * * * * * * * * * * * * * * * * * * * * * * * * * * * * * * * * * * //

dimensions      [0 0 0 0 0 0 0];


internalField   nonuniform List<scalar> 
65536
(
0.000488285
0.00154068
0.0015632
0.00200511
0.00183849
0.00143691
0.000797543
0.000992983
0.000909316
0.000322513
0.000150366
0.00101863
0.00100544
0.000575803
0.000581487
0.000500092
0.000116923
0.000226248
0.0010135
0.000623735
0.000862885
0.000918859
0.000792084
0.000791651
0.000868432
0.000593767
0.00101643
0.00153797
0.00132405
0.000528521
0.00100103
0.00162976
0.00150553
0.00134333
0.000440004
0.000822374
0.000941993
0.000950063
0.00107054
0.00122217
0.000360885
0.000753122
0.0001175
0.000527182
0.000752502
0.000302302
0.000941018
0.000993604
0.00056751
0.00134914
0.00104473
0.000736887
0.000627249
0.000184454
0.000456537
0.00083407
0.00116266
0.00103545
0.000721494
0.00101047
0.000847901
0.00071318
0.000971381
0.000651655
0.000398176
0.000200001
0.000813789
0.000705774
0.000678544
0.000522693
0.000473104
0.000400663
4.74088e-05
0.000412765
0.000590382
0.000118358
0.000291511
0.000561045
0.000555093
0.000608405
0.000852478
0.000658202
7.05381e-05
0.000370539
0.000731411
0.00113283
0.000274128
0.000284889
0.000477317
0.000581201
0.000457239
0.000607669
0.00089056
0.000419663
0.00031722
0.000207828
0.000333997
0.000263569
0.000200228
0.000696161
0.000645591
0.000239568
0.000281116
0.00032908
0.000581602
0.000571468
0.000426383
0.000136969
0.000506461
0.000469026
0.000663587
0.000720204
0.000625104
0.000527312
0.00067359
0.000899656
0.000447503
0.00051079
0.000512794
0.000821802
0.000752743
0.000601733
0.000453045
0.000357596
0.000756417
0.000727999
0.000515474
0.000772389
0.000807434
0.000657248
0.000627889
0.000486319
0.000415552
0.000350016
0.000171122
0.000686685
0.000574711
0.000228451
0.000249502
0.000460956
0.000431431
0.000197982
0.000347305
0.000750476
0.000618571
0.000285366
0.000484529
0.000459909
0.000359899
0.000583466
0.000507347
0.000698562
0.00065273
0.000572496
0.000504666
0.000227838
0.000130009
0.000117268
0.000343498
0.000633704
0.000739297
0.000460612
0.000960228
0.000825137
0.000409472
5.08227e-05
0.000486492
0.000111306
0.000428161
0.000411757
0.00044667
0.000452998
0.000158754
0.000876428
0.000740603
0.000774953
0.000883582
0.000764726
0.000150555
0.000702676
0.000307661
0.000635963
0.000602579
0.000216889
0.000557001
0.0011849
0.00077329
0.000540281
0.000463788
0.000660321
0.00038824
0.000596562
9.41922e-05
0.000531832
0.000247081
0.000288946
0.000848444
0.000844934
0.000792388
0.000323822
0.000612854
0.000284236
0.00030146
0.00071713
0.00115388
0.000952122
0.000508266
0.000524612
0.000628288
0.000543206
0.000101751
0.000232304
0.000445284
0.000602785
0.000711823
0.00074128
0.000751412
0.000558581
0.000432262
0.000709192
0.000509707
0.000134983
0.000361477
0.000150337
0.000470419
0.000431634
0.000871728
0.000503215
0.000346361
0.000239301
0.000152794
0.000606318
0.000709646
0.000966893
0.00077139
0.000619694
0.000237607
0.000836916
0.000525217
0.000417644
0.000354777
0.000899772
0.00027907
0.000784771
0.000799571
0.00101901
0.000919256
0.000510448
0.000696061
0.000404115
0.000687348
0.000891196
0.000443761
0.000737191
0.000403057
0.000745594
0.000690648
0.000433613
0.000122636
0.000493558
0.000410571
0.000831685
0.000525861
0.0006958
0.000153174
0.000379418
0.0001744
0.000361751
0.000384125
0.000550863
0.000284056
0.000845069
0.000765191
0.000508074
0.000205644
0.00023074
0.000220602
0.000542656
0.0005404
0.000412641
0.000513654
0.00025774
0.000459035
0.000703258
0.000631426
0.000655457
0.000608348
0.000643253
0.00071892
0.00019063
0.000406373
0.000477444
0.000658971
0.000416096
0.000342427
0.000468903
0.000385808
0.000244694
0.000567666
0.00048941
0.000219839
0.000164309
0.000207178
0.00042118
0.000374971
0.000538507
0.000451969
0.000334369
0.000246148
0.000167241
0.000306363
0.000533418
0.000975715
0.000225919
0.000501999
0.000248861
0.00057697
0.000169042
0.000509908
0.000579578
0.000663006
0.000529269
0.000408478
0.000386344
0.000290885
0.000336753
0.000383271
0.000586334
0.000179735
0.00078321
0.000919803
0.000376108
0.000356364
0.000494749
0.00037699
0.000310017
0.000387259
0.000552841
0.000312304
0.000637101
0.000528692
0.000785031
0.000453614
0.000202536
0.000577863
0.000890203
0.00043331
0.000746612
0.000194626
0.000291884
0.000406491
0.00048263
0.000350631
0.000220456
0.000134278
0.000189164
0.000563922
0.000659317
0.000674216
0.000461234
0.000137176
0.000108659
9.6674e-05
5.89615e-05
0.0002311
0.00032305
0.000368692
0.00017142
0.000375059
0.00043741
0.00042835
0.000466329
0.000494956
0.000510667
0.000192923
9.25952e-05
5.52354e-05
0.000239457
0.000374773
0.000611082
0.000611149
0.000727997
0.000214258
0.000677993
0.000703244
0.000566702
0.000271903
0.000686003
0.000564859
0.000428998
0.000385936
0.000474986
0.00042096
0.000393119
0.000184866
0.00021295
0.000249343
0.000374627
0.000394591
2.64112e-05
0.000363234
0.000153686
0.000558292
0.000461631
0.000830339
0.000382357
0.000345392
0.000141275
0.000462722
0.000398853
0.000204729
0.000216047
0.000416037
0.000429853
0.000475094
0.000819073
0.000400276
0.000513707
0.000385351
0.000327965
0.000465087
0.000280573
0.000485571
0.000533757
0.000469569
0.00067972
0.000655788
0.000746813
0.000501251
0.000372161
0.000591948
0.000679632
0.00090134
0.000366755
0.000735927
0.000170361
0.000320641
0.000375685
0.000494744
0.000594669
0.00013006
0.000662529
0.000572376
0.000107992
0.000315639
7.68898e-05
0.000466769
0.000316841
0.000552491
0.000228309
0.000518445
0.000747544
0.000762657
0.00101606
0.000470929
0.000243515
0.00045759
0.000615971
0.000809536
0.000477589
0.000118262
0.00032865
0.000527124
0.000522511
0.000273457
0.000568725
0.000529618
0.000351882
0.000211018
0.000511952
0.000552343
0.000505577
0.000270789
0.000346294
0.000343813
0.000291942
0.000105872
0.000382197
0.000485645
0.00031478
0.000504556
0.000832042
0.000833293
0.000860624
0.000844725
0.00053136
0.00012781
0.000284919
0.000678891
0.000875634
0.000164295
0.000435001
0.000687921
0.000389138
0.000331692
0.000162785
0.000595516
0.000566684
0.00057831
0.000328501
0.000472698
0.000548775
0.000779577
0.000823809
0.000493321
0.000398419
0.000503103
0.000389245
0.000512683
0.000381993
0.000187656
0.00028849
0.00265694
0.000903129
0.000768887
0.000838169
0.00048056
0.0015629
0.00131241
0.000799067
0.000652172
0.00105518
0.000644669
0.000778325
0.000857239
0.000912536
0.000302722
0.000586253
0.000894671
0.00136128
0.00167296
0.000760644
0.00101098
0.000712947
0.000654439
0.000469922
0.00109298
0.00117249
0.00129049
0.000936179
0.00156632
0.00119279
0.000666481
0.00128077
0.00147243
0.00027671
0.000648465
0.00040668
0.00017832
0.000274005
0.000686843
0.00183041
0.0016436
0.00118927
0.00117492
0.000573288
0.000629145
0.00107292
0.000340743
0.00123354
0.00114107
0.000321187
0.000952542
0.000974036
0.000395013
0.000290771
0.000103131
0.000986177
0.00129016
0.000871818
0.000243084
0.000470038
0.000769403
0.00102648
0.000558808
0.000570528
0.000306
0.000266259
0.000435899
0.000851345
0.000322631
0.000699366
5.41822e-05
0.000373463
0.00017442
0.00035818
0.000273182
0.000319158
0.000317991
0.000458776
0.000420809
0.000785582
0.000436324
0.000512176
0.000524788
0.000281419
0.000828065
0.000445517
0.000525667
0.000302598
0.000344638
0.000473246
0.000622023
0.000483657
0.000184573
0.000418379
0.000376987
0.000168229
0.000213171
0.000103518
0.000631001
0.000227774
0.000459665
0.000521952
0.000300663
0.000858026
0.000351715
0.000451478
0.000415959
0.000378459
0.000197922
0.000557444
0.000548314
0.000333307
0.000619067
0.000803262
0.000691932
0.000388127
0.00102654
0.000357112
0.000375571
0.000631928
0.00108396
0.00030638
0.000189078
0.00122411
0.000490748
0.000617322
0.000112305
0.000115682
0.000490618
0.000817124
0.000780932
0.000528384
0.000233888
8.72521e-05
0.000232638
0.000427316
0.000212314
0.000572107
0.000862684
0.000222564
0.000229907
0.000272354
0.000338055
0.000402589
0.00037115
0.000128675
0.00027992
0.000376468
5.95301e-05
0.000538772
0.00122116
0.000273477
0.000368024
0.000738921
0.000368014
0.000358647
0.000696118
0.000570539
0.000585891
0.000337814
0.000584831
0.000150512
0.000626515
0.000558818
0.000430498
0.000672398
0.000939327
0.000771343
0.000145168
0.000705013
0.000680587
0.000351075
0.000200055
0.000702348
0.0004092
0.00055447
0.000239495
0.000603189
0.00137742
0.000634178
0.0009257
0.000477254
0.000304322
0.000534742
0.00067254
0.000301369
0.000604941
0.000577912
0.000533746
0.000695965
0.000973451
0.000468423
0.000845611
0.000661266
0.000577592
0.000374552
0.000331275
0.00119215
0.000211625
0.000901406
7.04263e-05
0.000485724
0.000142085
0.000790619
0.000766905
0.000598252
0.000816218
0.000395511
0.000310783
0.000716355
0.000764492
0.000434801
0.000256194
0.000528429
0.000805204
0.00104286
0.000563258
0.000325224
0.000694908
0.000336854
0.000530058
0.000661001
0.000220565
0.000317803
7.35388e-05
0.00125563
0.000404788
0.000672401
0.000759757
0.000282491
0.000485593
0.000209322
0.00111257
0.000403
0.000927411
0.000255429
0.000228024
0.000210975
0.000615082
0.000334528
0.00102194
0.000651215
0.000377832
0.000828862
0.000840556
0.000930805
0.00089971
0.00108613
9.00811e-05
0.000625303
0.000604259
0.000332981
0.00101114
0.000285789
0.00125758
7.14847e-05
0.000583234
0.000582769
0.000849884
6.28897e-05
0.000840053
0.000833731
0.000614434
0.00016935
0.00106202
0.000189601
0.000352884
0.000719304
0.000654324
5.94007e-05
0.000834355
0.00021314
0.000685326
0.000488965
0.000369041
0.000804514
0.000515301
0.00010823
0.000825539
0.00102358
0.000805229
0.000539576
0.00033509
0.000467643
0.000659749
0.000356192
0.000804783
0.00116013
0.000757581
0.00107329
0.00047432
0.0010011
0.000850052
3.06813e-05
0.000533107
0.000608168
0.000113006
0.000140553
0.000287219
0.000133765
0.000792607
0.000377268
0.000559138
0.00050549
0.00066001
0.000523584
0.000344976
0.000410881
0.000173255
0.000228214
0.000141139
0.000977907
0.000540332
0.00132103
0.000575722
0.000404333
0.000415397
0.000905201
0.000727925
0.00107489
0.000695892
0.000713989
0.000448168
0.000832902
0.00100469
0.000286048
0.000503802
0.000337511
0.00136086
0.000827099
0.000556706
0.00100818
0.000865857
0.000108868
0.000216711
0.000324899
0.000993755
0.000551045
0.000613095
0.000719583
0.000775388
0.000125323
0.000649909
0.000737546
0.000983204
0.000545392
0.00166213
0.000176502
0.000583196
0.000386667
0.000203125
0.000485737
0.00045781
0.000307887
0.000454532
0.000451528
0.000679051
0.00117468
0.000282963
8.57758e-05
0.000547681
0.000623077
0.000271513
0.000669962
2.59558e-05
0.000181089
0.000513645
0.000582057
3.56921e-05
0.000605016
0.000711184
0.000928737
0.00103763
0.000498573
0.000218627
0.000127008
8.991e-05
0.00011228
0.000710645
0.000311737
0.000872803
0.0001658
0.00066234
0.000816794
0.00053272
0.000304394
0.000814063
0.000349884
0.000185944
0.000515596
0.000734108
0.00125626
0.0012236
0.000489518
0.000273211
0.000646729
0.000339101
0.000245142
2.45705e-05
0.000869094
0.000249945
0.000318868
0.000539416
0.000752825
7.71705e-05
0.000944516
0.000724045
0.000682526
0.000310039
0.000401221
0.00087796
0.000795051
0.00053809
0.000264333
0.000731358
0.000562194
0.000757812
0.000283835
0.000297331
0.000274549
6.71623e-05
0.000677881
0.000393638
0.000206808
0.00012401
0.000675798
0.000698009
0.000480028
0.000880063
0.00036604
0.00033074
0.000360079
0.00045375
0.000599616
0.00103539
0.000838428
0.0003937
0.000531994
0.00083376
0.000297217
0.000803445
2.69582e-05
0.000359889
0.000394102
2.82326e-05
9.23758e-05
7.59742e-05
0.000657864
0.000578916
0.000233277
0.000351207
0.000525265
0.000924064
0.000623153
0.000213723
0.000161543
0.000272574
0.000879154
0.000534098
0.000455197
0.000345811
0.000217413
0.000960684
0.000967309
0.000497347
0.000329622
0.00080933
2.0123e-05
0.000299519
0.000307816
0.000855738
0.000713246
0.00044359
0.000865016
0.00110277
0.000262077
0.000134168
0.000104752
0.00101164
0.000716617
0.000851009
0.000904924
0.000890371
0.00107074
0.000837933
0.000493375
0.000576867
0.000616508
0.000815361
0.000519494
0.000834905
0.000853319
0.000305055
0.000841892
0.000600038
0.000826224
0.000308534
0.000657975
0.000405696
0.000842483
0.000597564
0.000936055
0.00125418
0.000751128
0.00107015
0.000517797
0.000446551
0.000756948
0.000274423
0.000395867
0.000850731
0.000625785
0.00165239
0.000549439
0.00139156
0.00250298
0.00201307
0.00076166
0.00110547
0.000953046
0.00117219
0.000968403
0.000949661
0.00190208
0.000963103
0.00114658
0.000779594
0.00120232
0.00140511
0.00200255
0.00184973
0.00236284
0.00104241
0.000730962
0.00168988
0.000602982
0.0014046
0.000430965
0.00072566
0.000708811
0.00104925
0.000722427
0.00146742
0.00071946
0.000831084
0.00177276
0.00124247
0.000457199
0.000304306
0.00173265
0.000694932
0.00161548
0.000893324
0.000411899
0.000648653
0.000202461
0.000329092
0.00110165
0.00111936
0.000971233
0.00106796
0.000840657
0.000285316
0.001461
0.000467119
0.000337748
0.000576757
0.000736145
0.00135344
0.000408425
0.000472009
0.000713523
0.000449068
0.00115638
0.000573147
0.000161798
0.000374313
0.000143403
0.00078696
7.73229e-05
0.000647311
0.000500911
0.000220798
0.000235488
0.000342219
0.000385139
0.000281828
0.000367542
0.000388503
0.000555677
0.000773486
0.000309065
0.000759994
0.000481346
0.000757783
0.000667094
8.03203e-05
0.000801175
0.000293248
0.000346197
0.000267131
0.000764893
0.000449722
8.84055e-05
0.000305641
0.000327298
0.000216928
0.000251239
0.000325044
0.000242478
0.00072793
0.000511548
0.000257636
0.000613
0.000227854
0.000836666
0.000703174
0.000724688
0.00037728
0.000272068
0.000266923
7.69327e-05
0.000360291
0.000508767
0.000661686
0.00107562
0.000755592
0.00105551
0.000872653
0.000860265
0.000552597
0.000801231
0.000724638
0.00069065
0.0010171
0.00097778
0.0010625
0.000490954
0.000445543
0.000302374
0.000603583
0.000886476
0.00101252
0.000567847
0.000321521
0.000113714
0.00017327
0.000455014
0.000413174
0.000978276
0.00078526
0.000596122
0.000231552
0.000127628
0.000407709
0.000369629
0.000320377
0.000191899
0.000252499
0.000398982
0.000438669
0.000877648
0.0011214
0.000567581
0.000343633
0.000443186
0.000268641
0.000748012
0.000680682
0.000950422
0.000819498
0.000324864
0.000367194
0.000828917
0.000497859
0.000250329
0.000466816
0.000917158
0.000618738
0.00112122
0.000844662
0.000853349
0.00038219
0.000559663
0.000402085
0.000884962
0.00106631
0.00048235
0.000682228
0.000888176
0.0012798
0.00158199
0.000504036
0.000546278
0.000681191
0.000265707
0.000623086
0.000516769
0.000464241
0.000643637
0.000278628
0.000638523
0.00119419
0.000553906
0.000958665
0.00132209
0.00114712
0.000540592
0.000776594
0.000478618
0.00111153
0.000711016
0.000323712
0.000406681
0.00080556
0.000352409
0.000800888
0.000540306
0.000392233
0.000653598
0.000519478
0.000821643
0.000235841
0.000472505
0.000538581
0.000479491
0.000260354
0.000687178
0.000957541
0.000632705
0.00033689
0.00014731
0.000685376
0.000142456
0.000466894
0.00027107
0.000818007
0.000672829
0.00118156
0.000576958
0.000879431
0.000856975
0.000233095
0.000888034
0.000633993
0.000966038
0.000731013
0.000576505
0.000449633
0.00065494
0.000319117
0.000661648
0.00120922
0.00141944
0.00124154
0.000610526
0.000760959
0.00112166
0.00128601
0.00104316
0.00109236
0.000783012
0.000631333
0.000952807
0.000749927
0.00152108
0.000628286
0.000863306
0.000375823
0.000709897
0.000848011
0.00102627
0.00105178
0.000924689
0.000787149
0.00104488
0.000733247
0.00103373
0.000663576
0.000657874
0.00047298
0.000906728
0.000278498
0.000765241
0.000359653
0.000507685
0.00105304
0.000658646
0.00068329
0.000799785
0.000759184
0.00141973
0.00128827
0.000821183
0.000521843
0.000298431
0.000306914
0.00080474
0.00117104
0.00120313
0.00168698
0.00115518
0.000232969
0.0011744
0.000867748
0.000929177
0.000405677
0.000602105
0.000423085
0.000146413
0.000126305
0.000500609
0.000401654
0.000551648
0.00102848
0.000561488
0.000886318
0.000126099
0.000284373
0.000103521
0.000382615
4.8717e-05
0.000571079
0.00104966
0.00108332
0.00107153
0.00128977
0.000660677
0.000914844
0.000899086
0.00147277
0.00118904
0.000514985
0.000850149
0.00118797
0.00116522
0.000888195
0.00126162
0.000464468
0.000593652
0.0006861
0.00177552
0.000842716
0.00113442
0.000673994
0.000367041
0.000247502
0.000968289
0.00073667
0.00077133
0.00118352
0.000897856
0.000815999
0.000740026
0.000618432
0.00033051
0.000790411
0.00183541
0.00143215
0.000913516
0.000719323
0.000328809
0.000589828
0.000399354
0.000490559
0.00067653
0.00041002
0.000418728
0.00118939
0.00101712
0.000788598
0.000382206
0.000349758
0.000776015
0.000117287
0.000436584
0.000558031
0.000261695
0.000483085
0.000437014
0.000763532
0.000410389
0.000589051
0.00141131
0.00109775
0.000954292
0.000162826
0.000213956
0.000121831
0.000672126
0.000376836
7.7094e-05
0.000378262
0.00086204
0.000559895
0.00086656
0.000574358
0.00106413
0.000978497
0.00105145
0.000320178
0.000447279
0.00139416
0.00146655
0.00127118
0.000981969
0.000471103
0.000808801
0.000614202
0.000256943
0.000693746
0.000815785
0.000781636
0.000478434
0.00112014
0.00094585
0.000857497
0.000902178
0.000858034
0.000603878
0.000790361
0.000488446
0.000756951
0.000799937
0.000870776
0.000699616
0.000749006
0.000748061
0.000812634
0.000422369
0.000152448
0.000246033
0.000417705
0.000323853
0.000317766
0.000708338
0.000612217
0.00032427
0.000495963
0.000838449
0.000743313
0.0010302
0.000100644
0.000395221
0.00059635
0.0011926
0.00148159
0.0010222
0.000907598
0.00102969
0.000948242
0.000162376
0.000363873
0.000347172
0.000264416
0.000202755
0.000304611
4.3396e-05
0.000441026
0.000712289
0.000611695
0.000469977
0.000230511
0.000725507
0.000657314
0.000385135
0.000260772
0.000344898
0.000269273
0.00055768
0.000846324
0.000515984
0.000659288
0.000948723
0.00101537
0.00116427
0.00108611
0.000181732
0.000666191
0.000728544
0.000529524
0.000107883
0.00074512
0.000576897
0.00129188
0.00107407
0.000868137
0.000866309
2.42658e-05
0.000627404
0.00104916
0.000478327
0.000590472
0.00182768
0.00145424
0.00106787
0.000493698
0.00101482
0.000847994
0.000229029
0.000766004
0.000458251
0.000561953
0.00120729
0.000874841
0.000751777
0.000361136
0.000520152
0.000134921
0.000458647
0.000913653
0.000644397
0.00044559
0.00159006
0.00102912
0.000725674
0.000642602
0.00123413
0.000300372
0.000703335
0.000631471
0.000415122
0.00163103
0.00182522
0.00114096
0.000741999
0.000764865
0.00119888
0.00196804
0.00266939
0.000990793
0.00132588
0.000617494
0.000937012
0.00182593
0.000795632
0.000348805
0.000127328
0.00129216
0.000223661
0.00093308
0.000552013
0.000956598
0.0020192
0.000328578
0.00131967
0.000661987
0.00102201
0.00194242
0.00150249
0.00146055
0.00202316
0.0007562
0.00103719
0.000981581
0.00116389
0.00126008
0.00110253
0.000975401
0.00117937
0.00141923
0.0013307
0.000368946
0.000972436
0.00110916
0.000230345
0.000545452
0.000584657
0.000547682
0.000221159
0.00160918
0.000786168
0.000801356
0.000868659
0.000901784
0.000814949
0.000778127
0.000382458
0.000436914
0.00108952
0.000636047
0.000801486
0.000471892
0.000312297
0.00100196
0.000445758
0.000777977
0.000389792
0.000531399
0.000365503
0.000574497
0.000603336
0.000464186
0.000292726
0.000557345
0.00018325
0.000461397
0.00065507
0.000262113
0.000243041
0.000324699
0.000547192
0.000716153
0.000662
0.000556382
0.000925563
0.000557364
0.000917643
0.000547547
0.000503606
0.000149527
0.000213839
0.00071164
0.000570439
0.000364353
0.000239719
0.000213309
0.000299203
0.000173721
0.000590774
0.000755244
0.000326962
0.000885333
0.000833107
0.000355198
0.00038029
0.00015854
0.000428536
0.00129523
0.000511615
0.000379684
0.000323558
0.000443428
0.000257884
0.000204274
0.00032933
0.00105052
0.00088625
0.000767036
0.00135364
0.000294059
0.000978009
0.000425736
0.000511383
0.000310767
0.000765549
0.00117627
0.000233635
0.00131356
0.000175201
0.000646778
0.000713494
0.000396986
0.000827815
0.00117983
0.000315528
0.000609486
0.000407867
0.000171472
0.000544298
0.000522524
0.00112764
0.00082084
0.000793968
0.000226971
0.000447896
0.000453349
0.000389335
0.000355044
0.00038707
0.000159974
0.000608894
0.00073115
0.00149696
0.000378277
0.000460121
0.000148502
0.000643678
0.000459716
0.000719069
0.00169188
0.000617413
0.00158766
0.000571866
0.000346399
0.00103421
9.79488e-05
0.000385428
0.00079766
0.00081642
0.000302108
0.00136694
0.00124314
0.000542994
0.000129876
0.000475148
0.000872429
0.000444023
0.0016326
0.000724985
0.000389462
0.00065897
0.000745594
0.001592
0.00046711
0.000182966
0.000598827
0.000380379
0.000484358
0.000150329
0.000659844
0.00027042
0.000671328
0.000920927
0.00111954
0.000474639
0.000818021
0.00188028
0.00192126
0.000856881
0.000989498
0.000159761
0.00104008
0.000506712
0.000759867
0.000911408
0.0004621
0.000557834
0.000548943
0.000530685
0.000189019
0.000369566
0.000596501
0.000274637
0.00094103
0.000394431
0.00031284
0.000105671
0.000752089
0.000855471
0.000701936
0.00100021
0.000371012
0.000408743
0.000725893
6.46611e-05
0.000330478
0.000240038
0.00080555
0.000521395
0.00101885
0.0010291
0.000695377
0.00105991
0.000653112
0.00109281
0.000639711
0.000973043
0.000254056
0.000757429
0.000921807
0.000679467
0.000940012
0.000699999
0.00200093
0.00110563
0.00196931
0.000766114
0.000407523
0.00120474
0.00121731
0.000694071
0.00129098
0.000558965
0.000820908
0.00123837
0.000391042
0.00166752
0.000401109
0.000584907
0.000721716
0.00159861
0.000705253
0.00144618
0.00169258
0.000827965
0.000886683
0.00135861
0.000240953
0.000770008
0.000864859
3.83621e-05
0.000537011
0.000319501
0.000774719
0.000434538
0.000588249
0.000327264
0.00129169
0.000118429
0.0010095
0.000807807
0.00079897
0.00135718
0.00155925
0.000726245
0.00062505
0.000283822
0.000459808
0.000657004
0.000859332
0.00137265
0.00150672
0.00117013
0.000253554
0.00104617
0.000848557
0.00107808
0.000557118
0.000326821
0.00068862
0.000246332
0.000438365
0.000413199
0.000309725
0.000478762
0.00108787
0.000724905
0.000557076
0.000373207
0.000536422
0.000411357
0.000164681
0.000581847
0.00082834
0.00230826
0.000914004
0.00134747
0.00159689
0.000594692
0.00128275
0.000472042
0.00213463
0.000710677
0.00067183
0.000668123
0.00142911
0.00128287
0.000398589
0.001748
0.00102806
0.000660174
0.000291674
0.00186026
0.0011618
0.000437633
0.00103025
0.000324734
0.000340228
0.00126898
0.000520311
0.000786502
0.00160851
0.000765247
0.00100523
0.00107855
0.000257222
0.000118517
0.000412672
0.00201637
0.000500874
0.00112426
0.000785877
0.000294875
0.0007316
0.000493161
7.556e-05
0.000836131
0.000674398
0.000157676
0.00135653
0.000953994
0.000945551
0.00011191
0.000468447
0.00062049
0.000174986
0.000415291
0.0005007
0.000176323
0.000348683
0.000414385
0.000878392
0.000220637
0.000592275
0.00151673
0.00101891
0.00108284
0.000157017
0.000198145
0.000714303
0.000618672
0.000732091
0.000451575
0.000799633
0.000571459
0.00109068
0.00057355
0.00151854
0.00119036
0.00212496
0.00119619
0.000784219
0.00027681
0.0015785
0.00122801
0.000804253
0.00131295
0.00135978
0.000573935
0.00105229
0.000130371
0.00111714
0.00055911
0.00119112
0.00122776
0.000909233
0.00242373
0.00104418
0.00180834
0.000825622
0.00136363
0.000402757
0.000472956
0.000915477
0.000605358
0.0010215
0.00102229
0.000814761
0.0005841
0.000928922
0.000149369
0.000311535
0.000409923
0.000665282
0.00084598
0.00119576
0.00059584
0.000846397
0.000600183
0.000364279
0.000995774
0.000254387
0.00107624
0.000275157
0.000627061
0.00167272
0.00149685
0.000939313
0.00213423
0.00116208
0.000967157
0.000387654
0.000410154
0.000299721
0.000368238
0.000508627
0.000330357
0.000172445
0.000174532
0.000377526
0.000708168
0.000402533
0.000879152
0.00041262
0.000431928
0.000757984
0.000712103
9.30761e-05
0.000332261
0.000177946
0.000331841
0.00135849
0.00098573
0.00126233
0.00171971
0.000517882
0.00163992
0.000970073
0.000149851
0.000198762
0.00104352
0.000727056
0.000894946
0.00136062
0.000367342
0.00163166
0.000887584
0.00096122
0.000909314
0.00024501
0.000819693
0.00082715
0.000612214
0.0014698
0.00118771
0.00258045
0.00062422
0.000245786
0.000766766
0.001301
8.14537e-05
0.000467284
0.000313076
0.000652211
0.00108001
0.0014572
0.000635091
0.000432683
0.000677344
0.000521978
0.000371773
0.0014286
0.000570089
0.000210936
0.00141064
0.00114765
0.000398023
0.000234655
0.00125361
0.000526394
0.000472785
0.000559066
0.00165981
0.00184215
0.00334202
0.00149004
0.00131594
0.00148777
0.00306111
0.000707213
0.00217085
0.000944043
0.00199959
0.001309
0.00137582
0.00046934
0.00226125
0.000810982
0.00113725
0.00204727
0.000386783
0.00134063
0.00091829
0.00110293
0.0026552
0.00250789
0.00117114
0.00147233
0.00213656
0.0012283
0.00119015
0.000582784
0.00154718
0.00229372
0.000803319
0.000112446
0.0018466
0.00114414
0.000667263
0.000988837
0.00111847
0.00101579
0.00180046
0.000751943
0.00207054
0.000913447
0.000933461
0.000813589
0.00105595
0.000459755
0.000603021
0.00169162
0.00178423
0.000612886
0.000843722
0.00129377
0.000522167
0.000930113
0.000133608
0.000703031
0.00138744
0.000589752
0.00113505
0.000733008
9.38814e-05
0.00128503
0.00037066
0.000791519
0.000699791
0.00085086
0.000368678
0.000374221
0.000994082
0.000356413
0.000633266
0.000574541
0.000678139
0.00071197
0.000911457
0.000571928
0.000113039
0.000422278
0.000437499
0.000757079
0.000836035
0.000533224
0.00141989
0.000519942
0.000970294
0.000902372
0.000298365
0.000482658
0.000290279
0.000910405
0.000420176
0.00052193
0.00027406
0.000655901
0.000195786
0.000466561
0.000855639
0.000728679
0.000340298
0.000650835
0.00142561
0.000608769
0.000556514
0.000303968
0.000300064
0.00159478
0.000362057
0.000775614
0.000908844
0.000418947
0.000479818
0.000504898
0.00031716
0.00140424
0.000557014
0.00121536
0.00125053
0.000357303
0.000701636
0.000303513
0.000317832
0.000274783
0.00085012
0.00125549
0.0004016
0.00120696
8.18175e-05
0.000971217
0.000713926
0.000163354
0.000851266
0.00128612
0.000448768
0.000477702
0.000460317
0.000486855
0.00137846
0.000717985
0.00122114
0.00133382
0.000514199
0.000414874
0.000649632
0.000225391
0.000817371
0.000428954
0.000483815
0.000420973
0.00101688
0.000355054
0.002089
0.000216179
0.00104016
0.00101932
0.000552846
0.000803315
0.000607392
0.00188378
0.000884248
0.00179928
0.000375233
0.00095764
0.00137091
0.000239949
0.000672171
0.00100957
0.00032844
0.000660666
0.00193863
0.00161394
0.000763726
0.000267345
0.000703675
0.000946244
0.00136878
0.00154496
0.00105205
0.000772593
0.000288393
0.000599269
0.00140012
0.000701749
0.0003192
0.00113108
0.000142493
0.000989384
0.00110477
0.00080465
0.000345082
0.000451428
0.00116553
0.0014753
0.000548519
0.000659875
0.00182544
0.00240661
0.000891569
0.00104619
0.000223704
0.000977387
0.000956681
0.000862894
0.00118411
0.00100064
0.000709854
0.00100733
0.000388899
0.000203321
0.000323158
0.00033863
0.000669665
0.000305974
0.000348795
0.000235608
0.000332463
0.000184635
0.00118477
0.000155033
0.000951836
0.00109364
0.000406378
0.00114969
0.000112652
0.000749967
0.000528359
0.000287052
0.000276382
0.000832047
0.00159395
0.000159541
0.00161156
0.0010971
0.000284095
0.00100804
0.000624476
0.000331338
0.00131507
0.00104821
0.00162018
0.000863827
0.000609578
0.00179976
0.00223967
0.00201875
0.00107359
0.000179426
0.00123316
0.00103286
0.000694971
0.0013895
0.000774985
0.00144032
0.0015213
0.000486072
0.00200033
0.000833656
0.000318452
0.00101294
0.00168366
0.00125304
0.000991478
0.00216042
0.000523961
0.000663019
0.00109955
0.000688035
0.00063528
0.00079526
0.000384605
0.000787809
0.00042056
0.000571808
0.000292795
0.000770719
0.000366031
0.00118571
0.000930096
0.000979508
0.000618003
0.00116699
0.000977838
0.00163161
0.000716315
0.000267247
0.00073513
0.000222814
0.000577907
0.000795408
0.0017365
0.00128458
0.00116975
0.00036284
0.000713927
0.00114912
0.00103766
0.000795651
9.88313e-05
0.000863341
0.0004343
0.000885544
0.000598439
0.000568598
0.000710328
0.00122964
0.00125591
0.000953674
0.000499518
0.000355553
0.000669978
0.000278579
0.000590033
0.00158749
0.00216794
0.00147838
0.00124962
0.00238558
0.000833483
0.00169078
0.00126766
0.00235666
0.00116889
0.000614504
0.000408553
0.00176687
0.00131167
0.00052137
0.001596
0.00195455
0.000317985
0.000590541
0.0014216
0.0014212
0.000609766
0.000717008
0.000703181
0.000239578
0.00169717
0.000456561
0.000904203
0.00191777
0.00107229
0.0014221
0.00157304
0.00024629
0.000528753
0.0007632
0.00183362
0.000841518
0.00108312
0.000607956
0.00048719
0.000933065
0.000593571
0.000450199
0.00120762
0.000324244
0.0010951
0.00115128
0.0012735
0.000772605
0.000618752
0.000476265
0.000813008
0.000696587
0.000190008
0.000450717
0.000398556
0.000378153
0.000643196
0.000972734
0.000609662
0.000969761
0.00152382
0.00122192
0.00140548
0.000306485
0.000263963
0.000669565
0.000714548
0.000976988
0.000441035
0.00103839
0.000347706
0.00117558
0.000262523
0.0015862
0.00158015
0.00207997
0.0017112
0.000924419
0.000629433
0.00153048
0.00148444
0.000349458
0.00132221
0.00177335
0.000860097
0.00109144
0.000146396
0.00128517
0.000248878
0.00170172
0.00165698
0.00125937
0.00282434
0.000597046
0.00250804
0.000423643
0.00140062
0.00126995
0.000985672
0.00115671
0.000473365
0.00137749
0.00122193
0.000688811
0.000873412
0.000972381
0.0001274
0.000547835
0.000146424
0.000688496
0.000962015
0.00129352
0.00145793
0.000731903
0.000882857
0.000194152
0.00130176
0.000316351
0.0012174
0.000441575
0.000695991
0.0018709
0.00153701
0.00141059
0.00228276
0.00143911
0.000996097
0.00154086
0.000108965
0.000797441
0.000126677
0.000417263
0.000620532
0.000253505