/*--------------------------------*- C++ -*----------------------------------*\
| =========                 |                                                 |
| \\      /  F ield         | OpenFOAM: The Open Source CFD Toolbox           |
|  \\    /   O peration     | Version:  v2012                                 |
|   \\  /    A nd           | Website:  www.openfoam.com                      |
|    \\/     M anipulation  |                                                 |
\*---------------------------------------------------------------------------*/
FoamFile
{
    version     2.0;
    format      ascii;
    class       volScalarField;
    location    "200";
    object      he_filtered;
}
// * * * * * * * * * * * * * * * * * * * * * * * * * * * * * * * * * * * * * //

dimensions      [0 2 -2 0 0 0 0];


internalField   nonuniform List<scalar> 
65536
(
-669.756
-661.303
-659.837
-646.412
-648.101
-636.812
-615.278
-587.928
-578.658
-551.477
-540.623
-555.513
-624.79
-520.94
-431.89
-372.151
-343.713
-346.503
-424.317
-310.668
-226.28
-177.69
-194.475
-114.911
-78.3012
-151.521
-74.4701
-112.835
-54.6048
-50.0278
-17.0705
37.9846
82.7025
137.599
184.345
232.769
284.818
336.561
391.437
444.039
498.399
550.162
597.731
645.188
689.061
730.054
768.472
801.848
832.73
860.55
884.163
908.539
928.455
946.43
963.854
980.285
994.151
1009.03
1016.02
1024.61
1030.52
1036.25
1039.49
1040.86
1043.77
1046.51
1049.57
1050.97
1053.4
1055.93
1056.66
1055.8
1053.86
1050.39
1046.62
1042.96
1037.87
1034.3
1030.81
1026.91
1024.07
1017.81
1014.74
1013.85
1012.11
1013.48
1017.49
1020.98
1024.6
1027.91
1031.37
1034.07
1036.89
1037.97
1041.34
1044.14
1046.53
1048.97
1050.15
1049.2
1047.4
1045.48
1044.51
1043.13
1046.76
1049.86
1055.17
1060.69
1063.36
1067.22
1069.18
1069.1
1066.67
1063.14
1059.58
1055.07
1047.91
1041.39
1037.81
1038.06
1042.03
1049.43
1058.15
1065.82
1070.35
1075.88
1078.67
1079.78
1078.74
1076.97
1076.32
1073.96
1074.06
1072.71
1071.41
1071.23
1070.65
1071.24
1071.58
1071.73
1069.71
1067.26
1062.24
1060.11
1059.67
1059.61
1062.32
1063.7
1065.51
1067.44
1069.58
1071.38
1072.48
1071.4
1071.12
1069.52
1068.8
1067.73
1069.97
1072.34
1075.62
1080.22
1082.15
1084.99
1084.9
1084.15
1081.77
1080.52
1077.22
1074.49
1073.52
1075.22
1075.67
1076.9
1077.41
1076.28
1074.91
1074.35
1074.87
1077.36
1081.43
1085.44
1089.53
1092.51
1096.3
1099.74
1104.22
1106.62
1107.57
1107.03
1104.17
1100.7
1099.18
1098.91
1098.9
1097.02
1094.38
1091.53
1089.89
1087.85
1086.73
1083.91
1081.56
1079.61
1075.98
1073.09
1070.13
1066.42
1062.66
1058.3
1054.27
1052.8
1053.48
1053.9
1055.45
1058.16
1060.7
1064.27
1066.04
1067.67
1070.07
1070.23
1074.62
1080.4
1086.32
1091.5
1095.96
1098.69
1099.72
1100.16
1098.32
1099.2
1094.9
1091.24
1087.48
1082.93
1079.27
1076.94
1079.78
1083.72
1089.54
1093.1
1097.53
1100.01
1100.84
1098.51
1100.45
1099.74
1100.71
1100.87
1098.81
1096.72
1093.73
1090.37
1087.51
1084.57
1082.61
1084.4
1084.25
1087.11
1094.51
1099.91
1106.62
1115.42
1121.61
1125.72
1127.71
1128.18
1128.81
1126.64
1122.96
1119.52
1116.1
1110.93
1108.24
1105.62
1106.15
1106.05
1108.81
1109.87
1114.11
1116.05
1117.76
1116.88
1114.97
1113.62
1112.29
1111.43
1112.43
1113.17
1114.37
1118.04
1121.27
1123.76
1125.72
1126.74
1127.78
1126.5
1125.3
1124.17
1121.36
1121.63
1120.28
1119.81
1116.07
1113.11
1107.55
1102.06
1096.43
1090.18
1085.81
1083.34
1079.12
1075.42
1075.21
1075.99
1074.97
1075.53
1079.08
1081.55
1083.92
1085.03
1084.36
1082.65
1082.84
1080.92
1081.5
1084.47
1089.16
1094.52
1100.71
1105.41
1107.92
1108.67
1108.8
1106.88
1102.23
1097.82
1091.82
1086.1
1081.84
1079.14
1077.24
1076.1
1076.84
1080.76
1083.62
1086.74
1088.94
1091.75
1093.72
1097.7
1102
1105.29
1106.7
1108.81
1109.46
1112
1114.63
1117.13
1120.86
1124.68
1127.35
1129.58
1129.87
1130.56
1129.17
1127.84
1126.42
1125.91
1126.54
1125.07
1124.05
1120.33
1115.51
1109.15
1102.35
1094.79
1088.04
1085.36
1085.92
1087.75
1088.78
1089.16
1090.03
1091.04
1093.88
1095.97
1100.45
1105.83
1109.47
1110.82
1110.75
1108.14
1104.1
1099.1
1094.11
1087.64
1084.09
1081.98
1080.35
1078.45
1077.93
1078.54
1076.93
1078.26
1078.64
1077.14
1075.3
1074.73
1076.21
1079.89
1083.69
1087.57
1088.8
1091.2
1095.2
1096.15
1098.08
1102.41
1108.31
1111.2
1116.12
1121.79
1126.05
1128.65
1127.48
1124.63
1118.4
1110.52
1102.6
1093.76
1089.78
1084.61
1082.49
1082.36
1081.22
1081.6
1080.01
1079.12
1076.29
1074.04
1072.68
1070.32
1071.18
1077.66
1082.36
1089.28
1094.38
1098.27
1100.64
1102.91
1106.49
1107.21
1109
1110.16
1110.81
1109.19
1108.25
1107.63
1105.23
1103.13
1104.25
1107.89
1108.24
1110.52
1111.81
1114.46
1116.6
1118.87
1120.5
1121.26
1118.83
1117.03
1113.04
1107.6
1101.27
1094.53
1087.73
1083.96
1080.62
1080.04
1083.06
1084.45
1087.68
1091.52
1092.42
1093.77
1093.89
1091.86
1088.45
1089.37
1089.69
1092.4
1094.33
1096.05
1099.79
1101.42
1106.23
1110.04
1113.18
1115.26
1116.71
1116.4
1117.4
1116.84
1116.25
1113.8
1110.69
1106.52
1101.01
1097.58
-1268.1
-1269.95
-1267.16
-1269.19
-1266.78
-1221.34
-1228.25
-1181.51
-1165.98
-1149.12
-1135.84
-1108.37
-1082.16
-1037.8
-984.965
-959.039
-892.148
-877.301
-830.784
-801.749
-737.173
-709.998
-669.46
-622.431
-571.032
-525.589
-499.003
-440.572
-413.789
-355.24
-301.026
-245.713
-180.868
-117.966
-52.4935
10.9367
72.3974
136.648
195.132
251.429
308.824
365.171
421.914
469.752
521.497
564.649
604.262
644.724
675.56
707.293
735.275
751.816
776.758
794.823
813.474
829.085
843.104
846.389
869.398
877.376
887.299
886.815
888.249
895.826
897.065
899.325
897.865
906.54
911.078
911.866
911.819
911.283
911.648
912.644
908.903
900.232
899.875
892.535
886.945
883.617
873.731
876.862
866.548
858.756
866.139
868.811
874.481
881.576
886.27
891.106
892.701
894.291
893.58
900.34
899.614
903.612
909.017
909.254
909.269
909.915
905.958
898.382
890.506
895.224
895.294
908.855
916.003
919.107
928.594
926.243
927.937
928.381
928.451
925.391
918.912
908.763
903.107
892.192
882.458
883.382
896.419
907.956
915.845
922.577
934.347
935.713
939.648
938.931
939.129
939.75
934.668
938.877
931.945
932.932
933.228
931.41
930.813
929.67
932.605
932.462
932.773
925.338
922.532
915.303
909.295
915.463
917.866
925.491
927.557
929.458
927.344
924.153
922.099
928.033
928.369
927.705
920.46
920.269
917.915
926.539
934.624
936.351
944.177
941.953
945.4
942.794
939.489
928.426
930.211
931.578
935.52
931.393
932.259
935.512
935.611
936.312
928.912
923.822
929.066
934.559
940.954
944.86
947.095
951.504
956.455
960.761
962.332
968.321
969.358
964.588
959.1
954.987
956.626
959.092
956.679
955.797
956.71
954.737
947.447
942.143
938.46
939.746
938.783
936.837
937.857
934.844
930.712
925.163
919.516
914.02
914.607
912.581
910.475
911.847
910.388
910.144
918.969
923.24
927.678
925.48
918.081
925.259
926.136
933.489
944.267
950.323
950.896
955.467
959.739
957.472
958.568
945.435
950.927
949.219
941.057
939.526
934.659
932.167
932.412
938.581
940.99
953.905
957.926
958.751
955.853
960.083
949.857
958.259
961.289
959.365
960.309
960.041
954.643
945.279
936.065
935.728
937.402
928.901
935.937
938.575
938.169
953.905
967.346
971.234
978.202
985.361
987.892
986.621
977.579
978.412
980.008
978.921
970.558
970.396
963.401
959.177
949.512
953.27
955.858
967.205
967.133
973.075
971.97
973.252
975.852
970.114
969.177
968.533
966.776
970.897
975.412
976.238
979.37
983.654
986.846
987.63
983.604
984.913
982.326
979.876
984.133
979.256
980.391
974.673
977.962
969.609
965.797
954.606
946.081
946.201
942.027
931.312
931.701
933.875
925.323
919.005
926.535
931.039
929.057
938.372
942.784
944.737
943.795
939.148
928.083
933.557
934.881
934.141
944.262
954.835
960.33
966.775
971.549
972.554
970.598
965.574
964.377
955.703
949.271
942.585
939.124
936.552
935.275
937.301
943.041
939.618
943.431
944.784
947.191
948.022
951.468
953.958
956.19
957.561
963.762
963.598
967.518
966.128
969.421
976.642
980.86
981.793
986.69
988.458
991.323
989.517
989.77
987.858
985.81
983.531
982.839
987.28
984.163
982.69
975.776
970.607
960.358
949.28
941.421
941.923
942.751
944.13
944.699
945.337
943.595
943.987
939.476
948.177
957.348
963.074
968.651
971.939
972.234
969.229
965.132
958.735
948.92
949.798
946.596
940.34
939.366
940.01
932.976
925.543
934.685
936.621
937.523
935.824
931.016
925.147
929.742
935.735
944.554
944.575
950.666
950.213
943.914
953.179
958.837
957.68
953.194
965.636
973.578
981.459
985.229
983.455
985.119
979.082
975.554
971.305
958.934
951.591
935.308
937.595
935.809
931.423
939.504
938.067
942.59
936.587
934.237
927.58
919.116
923.413
926.069
921.637
934.484
941.327
950.572
956.281
961.003
960.217
954.429
963.382
969.53
972.195
968.88
969.477
961.36
952.922
955.953
962.68
960.739
953.509
961.672
963.829
970.125
971.403
975.401
980.011
982.172
979.838
983.28
976.682
971.498
963.622
959.345
953.502
948.567
938.851
937.786
936.492
930.678
941.742
946.666
946.294
952.618
952.993
951.324
948.414
948.614
940.241
948.298
951.182
954.029
955.774
951.73
963.888
967.335
970.989
973.191
973.887
974.017
979.755
977.572
978.9
976.066
975.301
968.555
962.468
955.316
946.226
-1993.2
-2028.78
-2030.3
-2006.66
-1984.24
-1977.25
-1943.19
-1946.32
-1867.34
-1871.67
-1803.83
-1809.83
-1740.71
-1754.16
-1696.85
-1630.29
-1579.73
-1520.27
-1480.22
-1456.27
-1406.86
-1323.66
-1290.85
-1218.52
-1156.41
-1054.1
-1024.9
-932.827
-886.249
-830.417
-763.604
-692.58
-610.546
-544.298
-455.77
-390.082
-309.126
-246.653
-173.759
-99.9514
-42.7182
18.4071
81.1396
146
192.668
250.377
293.553
332.889
373.018
398.48
423.014
452.802
465.539
488.537
510.443
532.992
547.119
562.855
564.044
586.574
595.538
608.82
611.975
611.613
619.262
618.516
624.308
622.778
628.583
633.666
634.891
631.876
627.885
623.148
620.878
618.693
601.402
601.956
603.503
597.418
597.066
575.762
577.2
570.268
566.086
575.478
580.764
589.696
598.982
602.249
607.953
610.031
610.712
604.081
611.471
615.316
617.806
627.82
630.444
626.617
619.231
611.625
602.9
602.414
607.635
615.68
628.535
638.595
633.461
644.932
645.307
642.42
634.425
628.202
625.784
622.882
605.931
592.007
573.059
578.995
598.482
619.166
634.396
645.189
642.896
653.454
656.686
664.094
662.106
654.971
654.447
643.803
656.542
655.142
651.344
645.912
649.193
652.858
655.623
656.958
646.996
640.866
631.627
626.534
624.975
627.544
635.26
633.734
638.365
636.24
642.902
646.887
647.233
646.661
647.159
640.567
638.535
632.48
631.092
637.751
646.166
657.139
655.082
664.209
662.789
661.162
653.421
653.278
640.48
634.866
624.599
632.997
639.379
641.206
647.287
639.42
636.508
620.275
632.133
648.625
652.564
660.07
663.75
662.694
662.358
667.936
679.344
680.631
683.699
683.68
672.757
656.908
658.937
660.295
667.439
672.539
661.651
651.375
651.191
653.661
651.911
651.668
651.896
644.405
637.521
639.248
639.155
640.93
634.553
633.185
624.001
626.746
628.473
628.317
621.539
607.458
620.971
635.99
639.515
637.602
636.267
631.258
637.928
650.073
654.918
659.827
666.186
667.307
662.806
666.123
655.989
663.611
657.252
656.741
659.895
649.069
638.987
628.273
644.867
651.752
659.116
665.086
675.916
680.086
676.329
656.97
660.985
664.361
671.276
680.632
677.534
669.692
666.608
658.578
643.468
641.891
638.592
644.616
639.397
643.555
655.607
659.471
667.475
688.465
701.902
700.718
700.131
695.118
698.5
691.569
690.058
681.902
683.552
669.285
664.639
658.116
658.829
662.969
668.851
672.851
689.302
689.508
693.089
686.879
672.289
676.183
672.172
677.675
683.182
679.243
678.055
686.966
697.228
701.591
701.237
701.988
703.538
698.21
697.713
694.262
686.622
692.656
693.412
698.685
688.825
692.567
678.703
669.922
651.939
651.555
648.072
646.879
639.736
631.737
639.082
639.835
638.331
640.896
645.812
649.186
660.565
660.876
651.452
642.37
644.362
642.961
641.219
645.197
648.487
661.996
676.631
680.557
679.09
679.578
678.427
680.02
669.184
667.125
663.032
659.746
657.034
653.613
651.794
646.641
640.81
657.565
658.818
659.847
659.839
659.355
661.312
667.417
671.737
682.845
681.66
684.723
679.244
681.077
686.592
688.669
694.762
707.525
708.921
712.943
713.523
709.694
704.823
700.734
698.349
695.661
698.813
698.238
700.483
694.059
691.293
683.162
674.112
658.646
641.106
641.717
650.959
653.592
656.242
656.424
661.062
654.527
654.901
659.419
669.633
678.441
682.947
688.627
687.14
689.886
682.089
672.642
668.31
648.653
642.456
654.193
652.944
647.039
649.266
649.321
642.46
650.553
651.789
645.635
632.36
623.069
629.324
643.084
643.607
657.013
652.638
654.19
663.648
659.228
658.201
663.527
675.791
677.029
685.082
691.501
701.258
710.046
704.677
705.85
694.185
675.013
665.406
646.031
638.844
635.129
643.09
653.503
650.381
660.999
657.306
662.111
654.979
645.564
635.849
629.612
624.202
632.483
641.884
660.207
669.484
674.515
670.28
667.462
667.782
677.063
683.826
687.055
690.285
679.975
676.771
667.318
665.027
657.81
663.936
675.261
675.599
682.289
678.409
683.206
683.505
687.573
691.704
697.096
688.904
692.62
686.769
682.99
672.601
660.981
646.679
644.455
642.431
644.835
656.476
654.872
662.017
670.052
667.495
672.673
670.028
663.277
648.845
653.173
654.652
664.025
670.02
663.769
663.917
660.044
673.93
684.694
687.969
691.417
696.738
692.259
695.186
693.68
692.453
687.835
691.008
680.448
664.344
647.441
-2870.01
-2890.21
-2898.93
-2925.81
-2865.93
-2896.08
-2801.99
-2803.94
-2766.85
-2728.23
-2692.94
-2634.17
-2610.19
-2566.85
-2546.31
-2426.07
-2430.68
-2330.87
-2299.57
-2218.91
-2174.09
-2086.38
-2044.04
-1959.09
-1865.34
-1747.37
-1663.54
-1584.96
-1540.64
-1496.88
-1399.67
-1297.53
-1192.12
-1095.31
-1013.71
-901.924
-844.627
-740.285
-683.436
-610.007
-523.643
-439.887
-375.77
-307.097
-236.549
-184.196
-124.152
-81.9216
-44.8753
-8.5131
21.5544
33.9947
60.5524
69.6014
108.635
138.178
151.543
126.52
180.052
198.19
216.864
211.855
211.011
227.029
231.955
232.765
212.945
241.278
254.31
259.041
252.93
239.923
252.533
256.564
249.995
235.318
230.707
226.966
218.977
216.954
199.089
201.216
174.615
141.009
169.934
164.747
201.885
220.313
222.483
227.635
233.319
237.01
232.248
233.046
238.779
245.326
255.613
254.262
253.943
248.738
244.098
220.003
175.622
201.738
184.933
239.957
262.081
260.109
258.321
259.436
262.83
266.213
263.332
241.388
240.396
233.968
229.049
202.383
132.01
144.536
211.223
242.513
257.222
255.702
262.475
279.309
293.978
285.411
280.895
272.884
265.649
272.588
268.894
278.022
280.285
280.602
272.262
268.97
279.489
282.496
283.929
261.668
235.917
230.948
199.621
239.05
251.487
264.456
261.855
269.004
264.5
247.855
228.365
253.162
262.692
259.642
236.383
231.357
205.028
247.461
266.096
267.716
280.48
282.88
292.578
289.571
273.06
229.658
239.638
231.363
243.953
244.97
237.738
262.265
268.991
274.14
250.38
190.334
251.046
266.954
281.934
282.306
275.312
266.39
277.531
275.724
287.993
310.779
317.422
306.78
283.923
234.68
269.699
286.882
290.154
281.367
285.896
284.165
277.121
271.938
272.983
272.447
268.155
268.024
267.812
266.612
265.496
258.713
259.319
250.66
253.536
249.244
251.243
249.083
232.057
181.852
243.205
261.951
269.084
259.678
214.993
234.988
218.316
252.546
277.884
276.237
252.281
270.966
285.049
277.322
272.795
236.255
271.987
271.36
248.598
261.159
250.759
202.414
251.19
265.998
245.331
291.67
304.869
299.814
285.416
278.079
234.663
282.486
304.715
297.147
285.84
300.993
294.591
267.325
215.075
251.888
256.359
216.641
241.336
223.433
219.745
261.415
278.843
296.394
308.544
325.461
324.562
309.618
268.253
294.466
304.445
309.645
286.415
284.186
277.055
267.788
223.538
254.439
264.456
287.277
290.861
305.301
300.158
297.965
294.673
285.944
288.931
286.367
284.774
289.359
289.155
299.276
305.754
319.612
328.944
327.953
319.851
315.323
309.969
303.887
301.966
311.419
316.821
311.376
319.538
302.019
302.687
276.189
224.332
264.983
265.318
230.156
250.689
250.405
235.943
204.595
244.738
249.786
223.594
270.353
277.87
279.355
273.036
251.646
202.271
239.745
245.202
220.926
263.518
284.825
292.478
302.926
309.292
298.276
307.643
299.55
292.988
290.289
279.525
261.736
267.455
273.126
263.736
253.196
264.464
271.487
285.696
286.873
280.993
265.381
248.342
267.986
285.403
286.032
296.233
291.128
292.231
285.793
295.918
311.97
316.11
315.302
330.22
328.865
326.341
328.341
329.716
319.994
298.59
283.991
302.475
325.083
329.334
326.99
314.009
309.542
298.688
271.879
214.306
255.608
267.526
276.703
275.414
262.912
257.508
252.089
219.478
250.345
281.05
300.068
310.754
316.057
324.144
315.35
310.308
299.707
273.144
268.75
266.223
260.574
273.528
276.033
256.436
217.771
246.743
266.692
279.599
275.926
248.705
195.498
228.532
252.017
274.846
269.977
267.187
270.019
243.516
273.598
277.055
274.046
245.492
275.861
284.916
311.049
324.412
323.174
327.874
313.346
310.69
305.76
286.554
261.534
202.055
247.029
251.465
236.57
264.799
271.075
279.376
274.209
270.831
249.716
206.615
231.49
220.989
195.173
246.109
266.166
281.722
288.67
295.314
279.707
238.36
289.743
307.351
313.843
307.754
308.237
280.395
235.435
262.744
275.974
272.59
251.352
281.498
286.321
295.008
293.022
294.996
309.352
319.236
313.67
310.159
309.153
304.253
278.788
284.699
280.5
267.125
246.049
257.772
258.368
232.065
267.604
279.382
277.328
282.859
287.044
291.274
278.103
257.586
226.948
277.902
300.15
297.547
286.378
246.427
277.545
301.684
312.661
317.121
313.959
307.905
317.949
321.632
316.063
310.09
308.334
299.716
296.317
273.972
215.821
-3980.59
-3941.71
-4003.98
-4024.93
-3964.37
-3875.21
-3903.82
-3866.89
-3873.07
-3746.39
-3776.48
-3645.28
-3682.23
-3646.99
-3524.68
-3440.67
-3365.98
-3358.75
-3215.06
-3207.53
-3104.27
-3057.12
-2905.18
-2843.11
-2697.67
-2629.6
-2444.3
-2371.71
-2306.49
-2360.62
-2187.4
-2043
-1929.52
-1783.24
-1694.35
-1580.94
-1466.99
-1398.11
-1280.76
-1198.52
-1118.98
-1035.69
-939.838
-857.88
-770.998
-709.292
-644.91
-583.764
-538.043
-503.118
-482.051
-451.399
-448.72
-461.44
-381.023
-328.177
-312.282
-366.986
-311.95
-249.838
-223.66
-224.316
-249.423
-211.71
-189.814
-197.307
-244.355
-196.173
-175.971
-173.808
-185.766
-234.604
-199.732
-188.707
-194.646
-212.876
-260.92
-234.904
-221.969
-230.749
-245.704
-286.319
-269.42
-320.284
-283.656
-329.216
-252.091
-225.758
-213.734
-213.865
-209.732
-216.791
-235.698
-262.253
-218.904
-206.382
-203.134
-189.184
-176.26
-173.818
-189.968
-207.261
-274.642
-233.635
-265.39
-202.013
-182.958
-181.967
-230.903
-188.986
-177.135
-179.556
-203.979
-258.38
-216.739
-213.981
-246.974
-251.354
-307.105
-292.988
-224.345
-190.957
-177.772
-180.222
-226.253
-171.775
-159.44
-143.167
-151.236
-164.114
-188.162
-219.259
-169.017
-154.939
-155.254
-170.822
-168.363
-187.522
-154.449
-143.77
-168.05
-201.762
-257.932
-223.369
-258.183
-202.829
-193.256
-193.781
-192.112
-208.395
-188.931
-181.346
-228.68
-175.628
-165.552
-186.784
-232.878
-213.832
-249.353
-196.777
-179.323
-173.846
-182.478
-168.199
-157.162
-152.493
-172.629
-243.312
-217.349
-262.118
-270.12
-236.437
-263.977
-206.303
-176.39
-191.151
-189.335
-246.425
-201.076
-169.109
-174.119
-165.563
-174.773
-224.725
-197.12
-217.869
-159.151
-138.686
-125.819
-120.406
-144.015
-205.452
-175.865
-179.819
-165.711
-160.479
-180.364
-218.414
-219.072
-195.198
-199.154
-183.668
-181.796
-207.732
-225.819
-194.981
-201.325
-186.683
-200.149
-199.256
-218.362
-204.611
-209.018
-195.454
-201.302
-253.946
-202.694
-178.23
-166.623
-176.59
-237.946
-201.867
-231.543
-183.8
-173.111
-184.279
-245.258
-188.171
-186.173
-175.468
-197.001
-241.919
-183.216
-177.524
-223.527
-182.73
-188.466
-229.007
-171.99
-163.103
-201.219
-148.566
-130.274
-133.956
-160.47
-212.912
-239.676
-166.147
-145.36
-142.319
-189.961
-150.351
-143.38
-163.459
-236.172
-206.527
-205.554
-253.115
-220.116
-271.788
-267.067
-195.989
-211.597
-147.453
-123.492
-119.547
-125.188
-146.88
-224.498
-175.743
-156.192
-167.324
-171.04
-212.118
-205.063
-199.27
-243.033
-193.403
-212.47
-177.436
-149.023
-147.845
-145.46
-157.902
-202.093
-182.784
-194.246
-177.548
-168.775
-177.392
-211.264
-158.746
-131.997
-119.552
-116.368
-119.909
-127.394
-137.56
-143.117
-165.947
-202.948
-154.404
-141.866
-135.52
-148.885
-138.481
-148.438
-159.451
-216.559
-163.884
-171.182
-225.365
-204.216
-237.458
-213.7
-268.943
-212.724
-193.637
-234.776
-180.584
-156.261
-160.056
-185.276
-233.532
-276.368
-200.054
-194.594
-245.171
-207.362
-179.557
-163.413
-142.134
-153.096
-194.698
-155.707
-152.479
-197.817
-174.013
-182.401
-216.73
-182.663
-175.956
-188.502
-238.47
-238.132
-172.885
-165.445
-165.969
-172.578
-187.829
-252.14
-191.425
-187.969
-159.889
-152.935
-147.004
-160.788
-192.792
-160.041
-149.516
-137.78
-127.012
-121.357
-108.028
-107.588
-113.003
-124.63
-134.314
-152.519
-209.321
-147.594
-132.105
-124.181
-137.172
-155.792
-139.826
-140.463
-168.313
-234.655
-212.384
-188.945
-188.608
-186.777
-219.36
-182.045
-186.022
-248.234
-226.223
-169.044
-155.028
-162.3
-136.371
-130.995
-125.28
-137.46
-157.92
-178.314
-233.909
-225.523
-195.589
-181.34
-175.085
-185.646
-262.411
-240.194
-172.018
-155.573
-169.721
-191.268
-256.483
-251.846
-202.86
-213.639
-186.206
-218.212
-186.435
-224.389
-177.318
-205.432
-181.974
-235.773
-182.796
-197.409
-144.611
-126.661
-132.453
-132.255
-125.125
-142.241
-173.337
-178.613
-228.681
-276.001
-236.144
-208.504
-244.157
-192.554
-166.587
-161.896
-156.254
-167.1
-185.659
-250.686
-219.204
-270.452
-283.405
-213.22
-174.393
-157.104
-148.559
-160.515
-172.555
-219.135
-153.047
-130.076
-134.263
-137.042
-148.686
-157.537
-227.964
-192.183
-219.769
-187.371
-223.318
-167.118
-156.485
-181.858
-168.81
-196.616
-150.934
-135.391
-135.657
-181.093
-143.037
-152.723
-202.166
-165.163
-180.47
-224.219
-256.243
-211.55
-203.588
-245.075
-180.203
-162.734
-168.704
-193.373
-154.808
-150.769
-172.345
-236.024
-250.993
-177.549
-148.585
-135.352
-160.41
-222.047
-216.618
-159.92
-142.987
-145.233
-157.025
-141.635
-139.366
-138.07
-129.237
-131.62
-143.868
-141.054
-135.648
-152.562
-219.289
-5044.77
-5120.84
-5264.28
-5287.3
-5142.05
-5012.87
-5053.21
-5087.63
-4974.66
-5017.87
-5058.75
-4849.84
-4735.27
-4837.99
-4644.53
-4602.37
-4443.98
-4372.55
-4329.86
-4250.86
-4160.51
-4059.55
-3997.06
-3916.66
-3717.75
-3516.78
-3414.87
-3252.05
-3197.44
-3245.16
-3104.45
-2877.85
-2728.61
-2633.16
-2454.68
-2360.25
-2233.09
-2131.72
-2036.79
-1957.39
-1826.73
-1710.22
-1586.72
-1497.55
-1407.56
-1304.13
-1245.42
-1183.49
-1119.88
-1079.7
-1064.13
-1052.93
-986.731
-992.482
-903.915
-835.74
-786.159
-771.359
-814.534
-746.025
-718.971
-738.33
-703.895
-680.235
-671.236
-663.67
-657.587
-660.1
-652.64
-650.319
-662.6
-705.682
-676.57
-664.561
-674.717
-721.292
-792.011
-740.802
-742.432
-737.047
-792.487
-834.721
-778.531
-733.687
-725.905
-782.902
-739.59
-722.998
-744.891
-747.169
-710.538
-708.415
-763.761
-774.715
-712.07
-711.929
-692.248
-682.1
-680.268
-676.175
-679.067
-703.926
-680.295
-689.828
-660.06
-652.894
-644.192
-667.984
-739.329
-703.624
-703.973
-684.155
-690.529
-753.941
-729.68
-725.192
-771.731
-706.392
-677.255
-682.207
-675.585
-676.878
-673.809
-697.817
-729.682
-667.457
-635.891
-645.746
-656.454
-683.424
-725.409
-749.209
-686.355
-645.764
-630.805
-639.555
-639.65
-638.435
-627.984
-628.588
-640.015
-718.634
-740.909
-684.584
-659.279
-669.668
-709.191
-680.542
-699.756
-721.106
-665.197
-672.984
-655.511
-659.621
-652.507
-663.037
-680.758
-676.181
-666.274
-666.216
-682.848
-710.888
-717.168
-700.524
-640.192
-624.988
-628.646
-636.943
-674.438
-739.414
-783.692
-725.481
-753.162
-695.613
-674.382
-695.473
-643.8
-620.479
-646.578
-651.308
-679.438
-666.389
-677.789
-707.334
-672.832
-715.724
-683.678
-632.198
-607.13
-604.772
-614.622
-631.856
-664.62
-697.778
-672.891
-693.93
-679.273
-750.492
-751.976
-699.77
-694.012
-661.827
-663.457
-678.696
-728.546
-704.86
-733.451
-697.787
-716.377
-697.713
-725.413
-705.236
-733.283
-675.957
-667.405
-651.952
-667.137
-688.676
-660.401
-631.241
-626.274
-655.585
-660.479
-683.781
-646.687
-658.918
-716.996
-682.232
-702.861
-673.212
-686.634
-646.843
-633.55
-644.269
-663.045
-656.392
-645.132
-625.704
-629.058
-614.661
-606.44
-600.054
-601.324
-629.003
-688.871
-721.376
-660.219
-657.91
-621.077
-625.807
-654.648
-615.211
-610.69
-635.306
-637.445
-697.004
-651.629
-643.111
-650.979
-706.173
-653.575
-653.274
-704.064
-659.899
-654.358
-616.196
-604.282
-612.578
-627.602
-703.635
-665.865
-663.831
-720.446
-748.358
-735.733
-664.63
-645.788
-666.704
-687.011
-681.764
-687.856
-659.353
-687.152
-682.333
-729.094
-719.647
-738.69
-711.08
-691.39
-684.692
-736.284
-678.731
-671.395
-634.296
-617.689
-629.932
-657.606
-682.265
-668.196
-707.246
-720.888
-655.785
-649.76
-673.956
-655.694
-686.944
-647.528
-649.379
-611.638
-615.55
-616.64
-642.927
-668.179
-731.028
-708.405
-663.961
-698.294
-653.302
-633.373
-635.055
-654.869
-654.542
-672.312
-704.583
-657.996
-675.649
-662.322
-664.68
-710.492
-671.675
-702.646
-647.694
-635.748
-683.587
-639.076
-647.144
-705.276
-667.357
-661.817
-692.803
-674.145
-652.22
-655.798
-716.106
-743.274
-669.915
-649.001
-656.701
-672.413
-703.512
-742.505
-706.375
-736.563
-703.465
-671.871
-685.171
-670.963
-681.824
-663.734
-644.809
-662.578
-671.139
-622.206
-623.278
-641.921
-637.098
-615.229
-629.203
-678.145
-703.359
-669.303
-630.138
-608.744
-610.549
-640.762
-625.074
-607.462
-620.283
-645.497
-689.364
-672.575
-690.931
-667.469
-703.988
-694.351
-677.111
-649.811
-668.078
-641
-649.525
-698.49
-643.544
-621.69
-614.757
-615.647
-641.452
-704.063
-769.262
-778.54
-741.488
-671.213
-654.337
-657.665
-660.426
-714.107
-653.644
-624.893
-626.804
-653.459
-666.77
-715.334
-700.782
-730.051
-668.764
-693.404
-630.49
-617.722
-631.9
-680.199
-647.375
-634.669
-649.887
-668.534
-635.597
-628.997
-677.413
-645.106
-663.252
-645.225
-689.823
-662.494
-706.397
-667.253
-722.721
-684.366
-676.477
-674.759
-686.863
-686.45
-681.135
-658.211
-659.067
-647.135
-663.287
-723.306
-682.591
-707.387
-695.214
-664.418
-663.824
-643.314
-662.989
-616.992
-616.715
-621.566
-632.45
-665.782
-642.996
-642.378
-645.344
-702.62
-729.423
-668.077
-643.69
-637.907
-664.832
-683.297
-661.847
-693.909
-652.584
-631.901
-637.273
-688.171
-638.28
-623.645
-660.669
-644.611
-668.29
-748.976
-758.05
-687.177
-655.813
-646.305
-660.093
-658.968
-695.596
-695.531
-642.927
-633.628
-658.714
-730.663
-660.72
-628.001
-606.951
-605.817
-608.237
-635.649
-697.566
-637.561
-636.321
-646.336
-695.97
-673.68
-659.601
-636.075
-647.876
-679.456
-696.402
-687.272
-632.362
-618.498
-614.895
-6355.28
-6411.61
-6428.7
-6473.58
-6283.38
-6257.27
-6266.89
-6307.98
-6239.08
-6376.57
-6299.77
-6075.82
-5911.41
-5993.05
-5835.97
-5882.48
-5759.76
-5644.41
-5533.34
-5515.93
-5425.28
-5261.34
-5081.67
-4990.4
-4780.88
-4608.1
-4449.37
-4263.91
-4101.97
-3984.73
-3998.45
-3816.16
-3662.28
-3510.9
-3364.05
-3244.46
-3109.81
-3012.9
-2875.39
-2804.03
-2615.16
-2511.88
-2353.68
-2187.36
-2075.24
-1989.27
-1905.06
-1815.91
-1752.22
-1706
-1732.53
-1701.13
-1603.23
-1520.53
-1470.64
-1380.81
-1321.33
-1280.22
-1315.14
-1271.12
-1214.44
-1247.68
-1188.26
-1173.04
-1164.41
-1201.63
-1152.02
-1152.65
-1161.3
-1185.69
-1181.82
-1173.36
-1190.06
-1190.86
-1192.9
-1253.27
-1295.1
-1268.58
-1283.65
-1256.45
-1319.98
-1323.85
-1284.29
-1198.23
-1188.3
-1173.91
-1244.15
-1250.22
-1301.16
-1285.9
-1220.67
-1209.99
-1252.4
-1189.44
-1187.51
-1191.5
-1243.43
-1236.73
-1200.49
-1191.37
-1197.34
-1240.98
-1178.68
-1208.81
-1145.01
-1148.06
-1168.64
-1168.83
-1167.89
-1224.98
-1243.01
-1207.78
-1222.33
-1183.24
-1208.75
-1219.63
-1270.22
-1209.51
-1161.02
-1153.12
-1174.89
-1214.36
-1193.79
-1227.15
-1178.46
-1169.8
-1178.56
-1158.17
-1172.75
-1221.47
-1224.76
-1161.93
-1183.66
-1134.44
-1127.22
-1146.66
-1143.88
-1130.82
-1119.33
-1117.29
-1167.84
-1200.76
-1157.67
-1183.18
-1140.9
-1163.88
-1232.34
-1207.42
-1196.49
-1198.73
-1173.87
-1191.23
-1138.73
-1173.38
-1158.07
-1200.21
-1200.46
-1177.88
-1147.93
-1177.96
-1226.03
-1243.56
-1192.34
-1217.14
-1175.78
-1143.05
-1135.65
-1134.24
-1170.66
-1210.79
-1170.71
-1210.22
-1252.31
-1234.59
-1170.89
-1140.55
-1131.25
-1119.26
-1120.65
-1133.87
-1161.66
-1189.65
-1195.21
-1153.75
-1174.69
-1172.22
-1218.65
-1174.59
-1147.22
-1112.81
-1108.95
-1122.47
-1189.66
-1180.71
-1201.92
-1235.02
-1198.16
-1170.55
-1207.51
-1181.75
-1220.91
-1182.1
-1185.95
-1155.41
-1152.39
-1216.95
-1227.28
-1187.28
-1202.56
-1187.58
-1193.56
-1200.92
-1245.09
-1190.3
-1189.18
-1159.84
-1205.36
-1211.29
-1195.52
-1122.13
-1101.78
-1169.41
-1154.98
-1211.67
-1173.07
-1170.41
-1151.16
-1164.56
-1194.84
-1159.75
-1165.6
-1123.85
-1145.63
-1138.6
-1164.12
-1165.13
-1180.93
-1175.36
-1135.01
-1115.18
-1094.55
-1125
-1120.14
-1139.71
-1205.15
-1148.25
-1132.29
-1203.12
-1145.47
-1123.08
-1117.91
-1124.75
-1129.87
-1156.1
-1143.13
-1196.73
-1178.94
-1123.19
-1145.26
-1112.48
-1114.56
-1129.01
-1126.88
-1179.62
-1199.97
-1144.34
-1148.17
-1155.15
-1187.97
-1256.33
-1205.6
-1234.06
-1277.25
-1238.15
-1243.4
-1171.14
-1124.33
-1142.86
-1199.09
-1245.81
-1264.01
-1211.07
-1238.28
-1185
-1200.15
-1240.22
-1248.49
-1259.18
-1237.1
-1211.34
-1246.42
-1201.42
-1224.1
-1156.98
-1143.44
-1159.67
-1218.54
-1239.8
-1182.27
-1201.24
-1154.39
-1171.74
-1199.34
-1252.3
-1242.53
-1262.97
-1199.38
-1198.77
-1122.27
-1101.92
-1105.78
-1111.94
-1148.56
-1182.05
-1206.56
-1146.45
-1178.73
-1145.21
-1133.68
-1182.89
-1221.39
-1191.02
-1217.65
-1180.07
-1162.5
-1193.21
-1149.9
-1157.03
-1203.83
-1216.18
-1235.74
-1165.67
-1165.27
-1141.66
-1161.27
-1157.02
-1159.91
-1202.34
-1187.01
-1185.65
-1207.28
-1168.53
-1155.57
-1143.57
-1116.04
-1148.17
-1195.08
-1214.04
-1207.53
-1229.8
-1189.47
-1189.95
-1242.2
-1258.7
-1209.16
-1243.41
-1189.62
-1199.16
-1201.78
-1177.78
-1187.47
-1219.07
-1168.2
-1158.86
-1204.42
-1204.52
-1158.73
-1164.14
-1207.44
-1167.22
-1212.37
-1194.58
-1147.62
-1157.04
-1150.64
-1167.28
-1122.98
-1125.79
-1165.73
-1161.39
-1175
-1169.89
-1146.58
-1149.33
-1192.88
-1183.28
-1100.41
-1105.05
-1132.28
-1174.42
-1214.32
-1169.48
-1174.89
-1142.01
-1160.81
-1167.67
-1222.85
-1220.72
-1280.06
-1280.1
-1208.76
-1199.78
-1147
-1137.57
-1192.54
-1131.93
-1119.69
-1148.88
-1146.96
-1122.59
-1141.77
-1198.43
-1136.56
-1148.67
-1117.72
-1121.28
-1092.42
-1099.73