/*--------------------------------*- C++ -*----------------------------------*\
| =========                 |                                                 |
| \\      /  F ield         | OpenFOAM: The Open Source CFD Toolbox           |
|  \\    /   O peration     | Version:  v2012                                 |
|   \\  /    A nd           | Website:  www.openfoam.com                      |
|    \\/     M anipulation  |                                                 |
\*---------------------------------------------------------------------------*/
FoamFile
{
    version     2.0;
    format      ascii;
    class       volScalarField;
    location    "200";
    object      p;
}
// * * * * * * * * * * * * * * * * * * * * * * * * * * * * * * * * * * * * * //

dimensions      [1 -1 -2 0 0 0 0];


internalField   nonuniform List<scalar> 
65536
(
158533
158530
158524
158518
158510
158498
158484
158469
158453
158439
158420
158401
158380
158359
158335
158311
158287
158263
158239
158213
158187
158159
158132
158103
158074
158044
158015
157984
157956
157928
157901
157874
157849
157824
157800
157777
157755
157735
157716
157699
157683
157667
157652
157639
157626
157614
157604
157594
157586
157579
157572
157566
157561
157555
157550
157545
157540
157536
157532
157528
157525
157522
157519
157517
157515
157513
157511
157510
157509
157507
157506
157505
157504
157502
157501
157500
157498
157497
157495
157494
157493
157492
157491
157490
157489
157488
157487
157485
157484
157483
157482
157480
157479
157478
157476
157475
157474
157473
157472
157471
157470
157469
157468
157467
157467
157466
157465
157464
157463
157462
157461
157460
157459
157458
157457
157456
157455
157454
157453
157452
157450
157449
157448
157447
157446
157445
157444
157443
157442
157441
157440
157439
157439
157438
157437
157437
157436
157436
157435
157435
157435
157435
157435
157434
157434
157434
157433
157433
157433
157432
157432
157432
157432
157431
157431
157431
157431
157430
157430
157430
157430
157429
157429
157429
157429
157429
157429
157429
157429
157429
157429
157429
157429
157429
157428
157428
157428
157428
157428
157428
157428
157428
157428
157428
157428
157428
157428
157428
157428
157428
157429
157429
157429
157430
157430
157430
157430
157430
157430
157430
157430
157430
157430
157430
157430
157430
157430
157430
157430
157430
157431
157431
157431
157431
157431
157431
157431
157432
157432
157432
157432
157432
157433
157433
157433
157433
157433
157434
157434
157434
157434
157435
157435
157435
157435
157435
157435
157435
157435
157435
157435
157435
157435
157435
157435
157435
157435
157435
157434
157434
157434
157434
157434
157434
157433
157433
157433
157433
157433
157433
157433
157433
157433
157433
157433
157433
157433
157433
157433
157434
157434
157434
157435
157435
157436
157436
157436
157436
157437
157437
157438
157438
157438
157439
157439
157439
157439
157440
157440
157440
157440
157439
157439
157439
157439
157439
157439
157439
157439
157439
157439
157439
157439
157440
157440
157440
157440
157441
157441
157441
157441
157441
157441
157441
157441
157441
157441
157441
157441
157441
157441
157441
157441
157441
157441
157442
157442
157442
157442
157443
157443
157443
157443
157443
157443
157443
157443
157443
157443
157444
157444
157444
157444
157444
157444
157444
157444
157444
157444
157444
157443
157443
157443
157443
157443
157443
157443
157443
157443
157443
157443
157442
157442
157442
157443
157443
157443
157443
157444
157444
157445
157445
157446
157446
157447
157447
157448
157448
157449
157449
157449
157449
157449
157449
157449
157449
157448
157448
157447
157447
157446
157445
157445
157444
157444
157443
157443
157443
157443
157443
157443
157443
157444
157444
157445
157445
157446
157446
157446
157447
157447
157447
157448
157448
157448
157448
157447
157447
157447
157447
157448
157448
157448
157448
157448
157448
157448
157448
157448
157448
157448
157448
157448
157448
157448
157449
157449
157449
157449
157449
157449
157450
157450
157450
157450
157450
157450
157450
157450
157450
157450
157449
157449
157449
157449
157449
157449
157450
157450
157450
157450
157450
157450
157451
157451
157451
157451
157451
157451
157451
157451
157451
157451
157451
157451
157451
157451
157451
157451
157451
157450
157450
157450
157450
157451
157451
157451
157451
157451
157451
157451
157451
157451
157451
157451
157451
157451
157451
157451
157451
157451
157451
157452
157452
157452
157452
157452
157452
157452
157452
157453
157453
157619
157619
157614
157608
157596
157593
157576
157566
157549
157532
157514
157493
157473
157450
157432
157404
157384
157355
157333
157306
157281
157254
157229
157200
157171
157141
157112
157083
157054
157027
157000
156974
156948
156923
156900
156877
156856
156835
156817
156800
156784
156769
156754
156741
156728
156717
156707
156697
156689
156682
156675
156670
156664
156659
156654
156649
156644
156640
156636
156632
156629
156626
156623
156621
156619
156617
156616
156614
156613
156612
156611
156609
156608
156607
156605
156604
156603
156601
156600
156599
156597
156596
156595
156594
156593
156592
156591
156590
156589
156588
156586
156585
156584
156582
156581
156580
156579
156578
156577
156576
156575
156574
156573
156572
156572
156571
156570
156569
156568
156567
156566
156565
156564
156563
156562
156561
156560
156559
156558
156557
156556
156554
156553
156552
156551
156550
156549
156548
156547
156546
156545
156545
156544
156543
156543
156542
156541
156541
156541
156540
156540
156540
156540
156540
156539
156539
156538
156538
156538
156538
156537
156537
156537
156537
156536
156536
156536
156536
156535
156535
156535
156535
156534
156534
156534
156534
156534
156534
156534
156534
156534
156534
156534
156534
156534
156534
156533
156533
156533
156533
156533
156533
156533
156533
156533
156533
156533
156533
156534
156534
156534
156534
156535
156535
156535
156535
156535
156536
156536
156536
156536
156536
156536
156536
156536
156536
156536
156536
156536
156536
156536
156536
156536
156536
156536
156537
156537
156537
156537
156537
156537
156538
156538
156538
156538
156538
156539
156539
156539
156539
156540
156540
156540
156540
156541
156541
156541
156541
156541
156541
156541
156541
156540
156540
156540
156540
156540
156540
156540
156540
156539
156539
156539
156539
156539
156539
156538
156538
156538
156538
156538
156538
156538
156538
156538
156538
156538
156538
156539
156539
156540
156540
156540
156541
156541
156541
156542
156542
156542
156543
156543
156543
156544
156544
156545
156545
156545
156545
156545
156545
156545
156545
156545
156544
156544
156544
156544
156544
156544
156544
156544
156545
156545
156545
156545
156545
156546
156546
156546
156546
156546
156546
156547
156546
156546
156546
156546
156546
156546
156546
156546
156546
156546
156547
156547
156547
156547
156547
156548
156548
156548
156548
156548
156548
156548
156548
156549
156549
156549
156549
156549
156549
156549
156549
156549
156549
156549
156549
156549
156549
156549
156549
156549
156548
156548
156548
156548
156548
156548
156548
156548
156548
156548
156548
156548
156548
156548
156549
156549
156549
156550
156550
156551
156551
156552
156552
156553
156553
156554
156554
156554
156554
156554
156554
156554
156554
156554
156553
156553
156552
156552
156551
156550
156550
156549
156549
156549
156548
156548
156548
156549
156549
156549
156550
156550
156550
156551
156551
156552
156552
156553
156553
156553
156553
156553
156553
156553
156553
156553
156553
156553
156553
156553
156553
156553
156553
156553
156553
156553
156553
156553
156554
156554
156554
156554
156554
156554
156554
156554
156554
156554
156555
156555
156555
156555
156555
156555
156555
156555
156555
156555
156555
156555
156555
156555
156555
156555
156555
156555
156555
156555
156556
156556
156556
156556
156556
156556
156556
156556
156556
156556
156557
156557
156557
156557
156557
156556
156556
156556
156556
156556
156556
156556
156556
156556
156556
156556
156556
156556
156556
156556
156556
156556
156556
156556
156556
156556
156556
156556
156557
156557
156557
156557
156557
156557
156557
156557
156557
156557
156558
156558
156558
156708
156700
156697
156694
156691
156680
156670
156655
156649
156622
156608
156584
156573
156549
156525
156500
156475
156451
156427
156404
156377
156353
156323
156300
156267
156243
156210
156184
156156
156129
156102
156075
156050
156024
156004
155980
155960
155939
155921
155904
155888
155873
155859
155846
155833
155823
155812
155804
155796
155789
155783
155777
155772
155766
155761
155756
155752
155748
155744
155740
155737
155734
155731
155729
155727
155725
155724
155723
155721
155720
155719
155718
155717
155715
155714
155712
155711
155710
155709
155707
155706
155705
155704
155704
155703
155702
155701
155700
155699
155697
155696
155694
155693
155692
155690
155689
155688
155687
155686
155685
155684
155684
155683
155682
155681
155680
155679
155678
155677
155676
155676
155675
155674
155673
155672
155671
155670
155668
155668
155666
155665
155664
155663
155662
155661
155660
155659
155658
155657
155656
155655
155654
155654
155653
155652
155652
155651
155651
155650
155650
155650
155650
155649
155649
155649
155649
155648
155648
155648
155647
155647
155647
155647
155647
155646
155646
155645
155645
155645
155645
155645
155644
155644
155644
155644
155644
155644
155644
155644
155644
155644
155644
155644
155644
155644
155643
155643
155643
155643
155643
155643
155643
155643
155643
155643
155643
155643
155643
155643
155644
155644
155644
155645
155645
155645
155645
155645
155645
155645
155645
155645
155645
155645
155646
155646
155646
155645
155645
155645
155645
155645
155646
155646
155646
155646
155646
155646
155647
155647
155647
155647
155648
155648
155648
155648
155648
155648
155649
155649
155649
155649
155650
155650
155650
155650
155650
155650
155650
155650
155650
155650
155650
155650
155650
155650
155650
155650
155650
155650
155649
155649
155649
155649
155648
155648
155648
155648
155648
155648
155648
155648
155648
155648
155648
155648
155648
155648
155648
155649
155649
155649
155650
155650
155651
155651
155651
155652
155652
155652
155653
155653
155653
155654
155654
155655
155654
155654
155655
155655
155655
155655
155655
155655
155654
155654
155654
155654
155654
155654
155654
155654
155654
155655
155655
155655
155655
155655
155656
155656
155656
155656
155656
155656
155656
155656
155656
155656
155656
155656
155656
155656
155656
155656
155656
155656
155657
155657
155658
155658
155658
155658
155658
155658
155659
155659
155659
155659
155658
155658
155659
155658
155658
155659
155659
155659
155659
155659
155659
155659
155659
155659
155659
155658
155658
155658
155658
155658
155658
155658
155658
155658
155658
155657
155658
155658
155658
155658
155658
155659
155659
155660
155660
155660
155661
155661
155662
155662
155663
155663
155663
155664
155664
155664
155664
155664
155664
155663
155663
155663
155662
155661
155661
155660
155660
155659
155659
155658
155658
155659
155659
155659
155659
155659
155660
155660
155661
155661
155661
155662
155662
155662
155663
155663
155663
155663
155663
155663
155663
155663
155663
155663
155663
155663
155663
155663
155663
155663
155663
155663
155663
155663
155663
155663
155663
155663
155664
155664
155663
155664
155664
155664
155664
155664
155665
155665
155665
155665
155665
155665
155665
155665
155665
155665
155665
155665
155665
155665
155665
155665
155665
155665
155665
155666
155666
155666
155666
155666
155666
155666
155666
155666
155666
155666
155666
155666
155666
155666
155666
155666
155666
155665
155665
155665
155665
155666
155666
155666
155666
155666
155666
155666
155666
155666
155666
155666
155666
155666
155666
155666
155666
155666
155666
155667
155667
155667
155667
155667
155667
155667
155667
155668
155668
155799
155794
155788
155787
155792
155769
155770
155750
155739
155730
155714
155694
155665
155643
155616
155607
155570
155552
155518
155500
155475
155453
155419
155398
155370
155346
155316
155287
155260
155234
155207
155182
155157
155131
155107
155088
155064
155047
155026
155011
154995
154980
154966
154954
154941
154931
154921
154912
154905
154898
154892
154887
154882
154877
154872
154867
154863
154859
154855
154851
154848
154846
154843
154841
154839
154837
154836
154835
154833
154832
154831
154830
154829
154828
154826
154825
154824
154822
154821
154820
154819
154818
154817
154816
154815
154815
154813
154812
154811
154810
154809
154807
154806
154804
154803
154801
154801
154800
154799
154798
154798
154796
154796
154795
154794
154793
154793
154792
154791
154790
154789
154788
154787
154786
154785
154784
154783
154782
154781
154780
154779
154778
154777
154776
154775
154774
154773
154772
154771
154770
154770
154768
154768
154767
154766
154766
154765
154765
154764
154764
154763
154763
154763
154763
154763
154762
154762
154762
154762
154761
154762
154761
154761
154761
154760
154760
154760
154759
154759
154759
154758
154758
154758
154758
154758
154758
154758
154758
154758
154759
154758
154758
154758
154757
154757
154757
154757
154757
154757
154756
154757
154756
154757
154757
154757
154757
154757
154757
154757
154757
154758
154758
154758
154758
154758
154759
154759
154759
154759
154759
154759
154759
154759
154759
154759
154759
154759
154759
154759
154759
154759
154759
154759
154760
154760
154760
154760
154760
154760
154761
154761
154761
154762
154762
154762
154762
154762
154762
154762
154763
154763
154763
154764
154764
154764
154764
154764
154764
154764
154764
154764
154764
154764
154764
154764
154763
154763
154763
154763
154763
154763
154763
154762
154762
154762
154762
154762
154762
154762
154762
154762
154762
154762
154762
154762
154762
154762
154762
154762
154763
154763
154764
154764
154765
154765
154765
154765
154766
154766
154766
154767
154767
154768
154768
154768
154768
154768
154768
154769
154768
154769
154768
154768
154768
154768
154767
154767
154767
154767
154768
154768
154768
154768
154769
154769
154769
154769
154769
154769
154769
154770
154770
154770
154770
154770
154770
154770
154770
154770
154770
154770
154771
154770
154771
154771
154771
154771
154771
154772
154772
154772
154772
154772
154772
154772
154772
154772
154772
154772
154773
154773
154773
154773
154773
154772
154773
154773
154773
154773
154772
154773
154772
154772
154772
154772
154772
154772
154772
154772
154772
154771
154771
154772
154772
154772
154772
154772
154772
154773
154773
154773
154774
154774
154775
154775
154775
154776
154776
154777
154777
154777
154778
154777
154778
154778
154777
154777
154777
154776
154776
154775
154775
154774
154774
154773
154773
154773
154773
154773
154773
154773
154773
154774
154774
154774
154774
154775
154775
154775
154776
154776
154777
154777
154777
154777
154777
154777
154777
154777
154777
154777
154777
154777
154777
154777
154777
154777
154777
154777
154777
154776
154777
154777
154777
154777
154777
154777
154777
154777
154777
154778
154778
154778
154778
154779
154779
154779
154779
154779
154779
154779
154779
154779
154779
154778
154779
154779
154779
154779
154779
154779
154779
154779
154779
154780
154780
154780
154780
154780
154780
154780
154780
154780
154780
154780
154780
154780
154780
154780
154780
154779
154779
154779
154779
154779
154780
154780
154780
154780
154779
154779
154779
154779
154779
154779
154779
154779
154779
154780
154780
154780
154780
154780
154780
154781
154781
154781
154781
154781
154781
154781
154781
154877
154894
154886
154875
154870
154871
154859
154851
154829
154837
154817
154803
154754
154742
154724
154709
154680
154647
154626
154598
154578
154547
154529
154503
154477
154437
154424
154391
154365
154339
154313
154287
154262
154244
154214
154196
154175
154155
154138
154120
154104
154089
154075
154062
154053
154041
154033
154025
154017
154011
154006
154000
153995
153990
153985
153981
153976
153972
153969
153965
153963
153960
153958
153955
153954
153952
153951
153950
153949
153948
153947
153946
153945
153943
153942
153941
153940
153938
153937
153936
153935
153934
153933
153933
153931
153931
153931
153929
153928
153927
153926
153924
153923
153922
153921
153919
153918
153917
153916
153915
153914
153914
153913
153912
153912
153911
153910
153909
153908
153908
153907
153906
153905
153904
153903
153901
153901
153899
153898
153897
153896
153895
153894
153893
153893
153892
153891
153890
153889
153888
153887
153886
153886
153885
153884
153883
153883
153882
153882
153882
153881
153881
153881
153880
153880
153880
153880
153880
153880
153879
153879
153879
153878
153878
153878
153877
153877
153877
153876
153876
153876
153876
153875
153875
153875
153875
153875
153875
153875
153876
153875
153875
153876
153875
153875
153875
153874
153875
153875
153874
153875
153874
153874
153874
153874
153874
153874
153874
153875
153875
153875
153876
153876
153876
153876
153876
153877
153877
153877
153877
153877
153877
153877
153877
153877
153877
153877
153877
153877
153877
153876
153877
153877
153877
153877
153877
153878
153878
153879
153879
153879
153879
153879
153879
153880
153880
153880
153880
153880
153880
153881
153881
153881
153882
153882
153882
153882
153881
153881
153881
153881
153881
153881
153881
153881
153881
153881
153881
153881
153880
153881
153880
153880
153880
153879
153880
153879
153879
153879
153879
153879
153879
153879
153879
153879
153879
153879
153879
153880
153881
153881
153881
153882
153882
153882
153883
153883
153883
153884
153884
153885
153885
153885
153886
153886
153886
153886
153886
153886
153886
153886
153886
153886
153886
153886
153886
153885
153885
153885
153885
153886
153886
153886
153886
153886
153886
153887
153887
153887
153887
153887
153887
153887
153888
153887
153887
153888
153888
153888
153888
153888
153888
153888
153889
153889
153889
153889
153889
153890
153890
153890
153890
153890
153890
153890
153889
153889
153890
153890
153890
153890
153890
153890
153890
153890
153890
153890
153890
153890
153890
153890
153890
153890
153890
153890
153890
153890
153890
153889
153889
153889
153889
153889
153890
153890
153890
153890
153890
153890
153891
153891
153891
153892
153892
153893
153893
153893
153893
153894
153894
153895
153895
153895
153895
153895
153895
153895
153894
153894
153894
153893
153893
153893
153892
153891
153891
153891
153891
153891
153891
153891
153891
153892
153892
153893
153893
153893
153893
153893
153894
153894
153894
153894
153895
153895
153894
153894
153895
153895
153895
153895
153895
153895
153895
153895
153895
153894
153894
153894
153894
153894
153894
153894
153895
153895
153894
153894
153894
153894
153894
153895
153895
153895
153896
153896
153896
153897
153897
153896
153897
153897
153897
153897
153896
153897
153896
153897
153897
153896
153896
153896
153896
153897
153896
153897
153897
153897
153897
153897
153897
153897
153897
153897
153897
153897
153898
153897
153897
153897
153897
153897
153897
153897
153897
153897
153897
153897
153896
153897
153896
153897
153896
153896
153897
153897
153896
153896
153897
153897
153898
153898
153898
153898
153898
153898
153898
153899
153899
153899
153899
153899
153899
153973
153978
153984
153974
153959
153971
153948
153952
153941
153926
153910
153891
153873
153850
153830
153805
153787
153751
153737
153704
153680
153657
153638
153608
153578
153542
153519
153500
153474
153448
153421
153396
153370
153346
153329
153304
153289
153264
153248
153231
153213
153197
153186
153172
153160
153153
153144
153137
153131
153125
153120
153115
153110
153105
153100
153096
153091
153088
153086
153083
153080
153078
153076
153074
153072
153070
153069
153068
153067
153067
153066
153065
153064
153063
153061
153060
153059
153058
153057
153056
153055
153054
153053
153052
153052
153051
153051
153050
153049
153047
153046
153044
153043
153042
153041
153040
153039
153038
153037
153036
153035
153034
153034
153033
153032
153032
153031
153030
153030
153029
153028
153027
153026
153025
153024
153023
153021
153020
153019
153018
153017
153017
153016
153015
153014
153013
153012
153011
153011
153009
153009
153008
153007
153006
153006
153005
153004
153004
153003
153003
153002
153002
153002
153001
153001
153001
153001
153001
153001
153001
153000
153000
153000
153000
152999
152999
152998
152998
152998
152998
152997
152997
152997
152997
152997
152997
152997
152997
152996
152996
152996
152996
152996
152996
152996
152995
152996
152996
152995
152996
152996
152995
152995
152995
152995
152995
152995
152996
152996
152996
152997
152997
152997
152997
152998
152998
152998
152998
152998
152997
152997
152998
152998
152997
152998
152998
152998
152998
152998
152998
152997
152998
152998
152998
152998
152998
152999
153000
153000
153000
153000
153001
153001
153001
153001
153001
153001
153002
153002
153002
153002
153002
153003
153003
153004
153003
153003
153003
153003
153003
153003
153003
153002
153002
153002
153002
153001
153001
153001
153001
153001
153001
153001
153001
153001
153001
153000
153000
153000
153000
153000
153000
153001
153000
153000
153000
153000
153001
153001
153002
153002
153002
153002
153002
153003
153004
153004
153004
153005
153005
153006
153006
153007
153007
153007
153007
153008
153007
153007
153007
153007
153007
153007
153007
153007
153007
153007
153006
153007
153007
153007
153007
153007
153007
153008
153007
153008
153008
153008
153008
153008
153008
153008
153009
153008
153008
153009
153009
153009
153009
153010
153010
153010
153010
153010
153010
153010
153011
153011
153011
153011
153011
153011
153011
153011
153011
153010
153010
153011
153011
153011
153011
153011
153012
153012
153012
153012
153011
153011
153011
153011
153011
153011
153011
153011
153011
153011
153011
153011
153010
153011
153010
153011
153011
153012
153011
153011
153011
153012
153012
153012
153012
153012
153013
153013
153013
153014
153014
153015
153015
153015
153016
153015
153016
153016
153015
153015
153015
153015
153015
153015
153015
153014
153014
153013
153013
153013
153013
153013
153013
153013
153013
153014
153014
153014
153014
153015
153015
153016
153015
153016
153016
153016
153016
153016
153016
153016
153016
153017
153016
153017
153016
153016
153016
153016
153016
153016
153016
153016
153015
153015
153015
153015
153015
153015
153016
153015
153015
153015
153016
153016
153016
153017
153017
153017
153017
153018
153018
153018
153018
153018
153018
153018
153018
153018
153018
153018
153018
153018
153017
153018
153018
153018
153018
153018
153017
153018
153018
153018
153018
153019
153019
153019
153019
153018
153018
153018
153019
153019
153019
153018
153019
153018
153019
153018
153018
153018
153018
153018
153018
153018
153017
153017
153017
153017
153018
153018
153018
153019
153019
153019
153019
153019
153020
153020
153020
153020
153020
153021
153020
153020
153020
153083
153066
153078
153080
153069
153055
153043
153046
153043
153017
153002
152988
152991
152958
152934
152904
152880
152857
152830
152804
152781
152766
152738
152709
152680
152656
152622
152607
152583
152557
152533
152508
152481
152452
152439
152416
152396
152377
152356
152341
152326
152310
152299
152288
152275
152267
152259
152253
152246
152242
152237
152231
152227
152222
152218
152215
152211
152208
152205
152202
152200
152198
152196
152194
152193
152191
152191
152190
152189
152188
152187
152186
152186
152185
152184
152183
152181
152180
152180
152179
152178
152177
152176
152175
152175
152174
152173
152172
152172
152171
152169
152168
152166
152165
152164
152164
152163
152162
152161
152161
152160
152159
152158
152158
152157
152157
152156
152155
152154
152153
152152
152151
152150
152149
152148
152147
152146
152145
152144
152143
152142
152141
152140
152140
152138
152138
152137
152136
152135
152133
152134
152133
152132
152131
152130
152130
152129
152129
152128
152128
152127
152127
152126
152126
152126
152126
152126
152126
152126
152126
152126
152125
152125
152125
152124
152124
152123
152123
152122
152122
152122
152122
152121
152121
152121
152121
152121
152122
152122
152121
152121
152121
152121
152121
152121
152121
152121
152121
152121
152120
152120
152120
152120
152120
152120
152120
152120
152120
152121
152121
152121
152122
152122
152122
152123
152123
152122
152122
152122
152122
152123
152123
152123
152122
152123
152123
152122
152122
152122
152122
152122
152123
152123
152123
152123
152124
152124
152125
152125
152125
152125
152126
152126
152126
152126
152126
152126
152126
152127
152127
152127
152128
152128
152128
152127
152127
152128
152127
152127
152127
152127
152127
152127
152127
152126
152125
152125
152126
152126
152126
152125
152126
152126
152126
152126
152126
152125
152125
152125
152125
152125
152125
152125
152125
152125
152125
152126
152127
152127
152127
152127
152128
152128
152128
152128
152129
152129
152129
152129
152130
152130
152130
152131
152131
152131
152131
152133
152132
152132
152132
152132
152132
152132
152132
152132
152131
152131
152131
152131
152131
152131
152132
152132
152132
152133
152133
152133
152132
152132
152132
152133
152133
152133
152133
152133
152134
152134
152134
152134
152135
152135
152135
152135
152135
152135
152135
152135
152135
152135
152135
152136
152136
152136
152135
152136
152136
152135
152136
152136
152136
152136
152136
152137
152136
152136
152136
152136
152137
152136
152136
152136
152135
152135
152135
152135
152135
152135
152134
152135
152135
152135
152136
152136
152136
152137
152137
152137
152137
152138
152137
152137
152137
152137
152138
152138
152138
152139
152140
152140
152140
152140
152139
152140
152140
152141
152140
152140
152140
152140
152140
152140
152140
152140
152139
152138
152139
152138
152138
152138
152139
152139
152139
152139
152139
152139
152140
152140
152140
152140
152141
152140
152141
152140
152141
152140
152141
152141
152141
152140
152141
152141
152141
152141
152141
152140
152141
152141
152141
152141
152141
152140
152140
152140
152140
152139
152140
152139
152140
152140
152140
152141
152141
152141
152142
152142
152142
152142
152142
152142
152143
152142
152143
152142
152143
152142
152143
152143
152143
152143
152142
152143
152142
152143
152142
152142
152142
152142
152143
152142
152143
152143
152143
152143
152143
152143
152143
152143
152143
152143
152143
152143
152143
152143
152143
152143
152143
152143
152143
152142
152142
152142
152142
152142
152143
152143
152143
152143
152143
152144
152144
152144
152144
152144
152144
152145
152145
152145
152145
152146
152145
152144
152144
152196
152182
152181
152171
152167
152153
152152
152138
152126
152112
152097
152086
152072
152056
152032
152002
151982
151965
151937
151920
151884
151866
151839
151814
151796
151777
151753
151727
151697
151669
151643
151620
151591
151567
151540
151526
151509
151493
151473
151454
151441
151430
151416
151405
151394
151385
151377
151371
151364
151359
151356
151351
151346
151342
151337
151334
151333
151329
151327
151325
151323
151321
151319
151318
151317
151316
151315
151314
151314
151313
151312
151312
151311
151310
151309
151308
151308
151307
151305
151304
151303
151303
151302
151301
151301
151300
151299
151299
151298
151297
151296
151295
151293
151293
151292
151292
151291
151290
151289
151288
151288
151288
151286
151286
151285
151284
151283
151283
151282
151281
151280
151280
151279
151278
151277
151275
151274
151273
151272
151271
151271
151270
151269
151268
151266
151266
151265
151265
151264
151263
151262
151261
151260
151259
151259
151259
151258
151258
151257
151257
151256
151255
151255
151255
151254
151254
151254
151254
151253
151254
151253
151254
151253
151253
151252
151252
151252
151250
151250
151250
151250
151250
151250
151249
151250
151250
151249
151249
151250
151250
151251
151249
151250
151250
151250
151250
151249
151249
151249
151248
151248
151249
151248
151249
151249
151248
151249
151249
151249
151249
151250
151250
151250
151251
151251
151251
151250
151250
151250
151251
151253
151251
151250
151250
151251
151251
151250
151251
151251
151251
151251
151251
151251
151251
151252
151252
151253
151253
151254
151254
151254
151255
151254
151254
151254
151255
151255
151255
151256
151256
151256
151256
151256
151256
151254
151256
151256
151256
151256
151256
151256
151255
151255
151255
151255
151254
151255
151255
151255
151254
151254
151254
151253
151254
151254
151253
151254
151254
151254
151253
151253
151254
151253
151253
151254
151255
151255
151255
151255
151256
151256
151256
151256
151256
151257
151257
151257
151258
151258
151258
151258
151259
151259
151259
151260
151260
151259
151260
151260
151260
151260
151260
151260
151260
151260
151261
151261
151261
151260
151260
151260
151260
151260
151260
151261
151261
151261
151261
151261
151261
151261
151261
151262
151261
151261
151261
151261
151262
151262
151263
151263
151263
151264
151263
151263
151264
151263
151263
151264
151264
151264
151264
151264
151263
151264
151264
151266
151266
151264
151265
151265
151265
151265
151265
151266
151265
151265
151265
151264
151264
151263
151264
151263
151263
151264
151264
151264
151263
151264
151264
151264
151264
151265
151264
151265
151266
151265
151267
151267
151266
151266
151266
151266
151266
151267
151267
151267
151267
151267
151268
151267
151267
151268
151268
151268
151268
151269
151268
151268
151268
151269
151268
151268
151268
151267
151267
151267
151268
151268
151268
151267
151268
151268
151268
151268
151268
151268
151269
151268
151269
151268
151269
151269
151269
151269
151269
151269
151269
151269
151269
151268
151268
151268
151268
151269
151268
151269
151269
151269
151270
151269
151269
151268
151268
151268
151268
151268
151268
151270
151270
151270
151270
151270
151271
151270
151270
151270
151270
151270
151270
151270
151270
151271
151271
151271
151271
151272
151272
151272
151271
151271
151271
151271
151271
151271
151271
151271
151271
151271
151271
151271
151271
151271
151271
151271
151271
151271
151272
151271
151271
151272
151272
151272
151271
151271
151271
151271
151271
151271
151270
151270
151271
151270
151271
151271
151272
151271
151272
151272
151272
151273
151272
151273
151273
151273
151273
151273
151273
151273
151273
151273
151273
151299
151300
151289
151279
151264
151265
151271
151241
151226
151214
151199
151171
151165
151152
151127
151107
151096
151080
151056
151037
150995
150966
150943
150920
150905
150890
150870
150836
150805
150779
150754
150731
150711
150691
150659
150642
150623
150609
150593
150576
150559
150549
150536
150524
150512
150503
150497
150492
150485
150480
150476
150473
150468
150463
150460
150456
150456
150453
150451
150451
150448
150447
150445
150444
150443
150443
150442