/*--------------------------------*- C++ -*----------------------------------*\
| =========                 |                                                 |
| \\      /  F ield         | OpenFOAM: The Open Source CFD Toolbox           |
|  \\    /   O peration     | Version:  v2012                                 |
|   \\  /    A nd           | Website:  www.openfoam.com                      |
|    \\/     M anipulation  |                                                 |
\*---------------------------------------------------------------------------*/
FoamFile
{
    version     2.0;
    format      ascii;
    class       volScalarField;
    location    "200";
    object      p_rgh;
}
// * * * * * * * * * * * * * * * * * * * * * * * * * * * * * * * * * * * * * //

dimensions      [1 -1 -2 0 0 0 0];


internalField   nonuniform List<scalar> 
65536
(
58987.3
58983.9
58978.6
58972.4
58964.3
58952.3
58938.3
58923.3
58907
58892.4
58873.3
58855
58833.4
58812.1
58788.4
58764.4
58740.4
58716.5
58691.6
58665.5
58639.3
58611.6
58584.3
58554.9
58525.7
58495.6
58466.6
58436.4
58408
58379.8
58352.6
58325.7
58299.8
58274.7
58250.4
58227.6
58205.9
58185.7
58166.8
58149.3
58132.7
58117
58102.2
58088.4
58075.6
58063.8
58053.2
58043.8
58035.4
58028
58021.4
58015.3
58009.6
58004.2
57999
57994
57989.4
57984.9
57980.9
57977.1
57973.7
57970.7
57968.1
57965.7
57963.7
57961.8
57960.2
57958.7
57957.4
57956.2
57954.9
57953.7
57952.4
57951.1
57949.7
57948.3
57946.9
57945.6
57944.2
57942.9
57941.7
57940.5
57939.4
57938.4
57937.3
57936.4
57935.3
57934.1
57932.9
57931.6
57930.3
57928.9
57927.6
57926.3
57925.1
57923.9
57922.7
57921.7
57920.6
57919.7
57918.8
57917.9
57917
57916.1
57915.2
57914.2
57913.2
57912.2
57911.3
57910.3
57909.4
57908.4
57907.5
57906.5
57905.6
57904.6
57903.6
57902.6
57901.5
57900.4
57899.1
57897.8
57896.6
57895.4
57894.2
57893.1
57892.1
57891.2
57890.3
57889.4
57888.6
57887.8
57887
57886.4
57885.8
57885.3
57884.7
57884.3
57883.9
57883.7
57883.4
57883.2
57883.1
57882.8
57882.5
57882.1
57881.8
57881.4
57881
57880.7
57880.5
57880.3
57880.1
57879.9
57879.7
57879.4
57879.1
57878.9
57878.7
57878.3
57878.1
57877.8
57877.6
57877.4
57877.3
57877.3
57877.4
57877.5
57877.5
57877.6
57877.4
57877.3
57877.3
57877.1
57876.9
57876.8
57876.6
57876.5
57876.4
57876.4
57876.4
57876.4
57876.4
57876.5
57876.5
57876.5
57876.5
57876.6
57876.7
57876.9
57877.2
57877.5
57877.7
57878
57878.1
57878.4
57878.6
57878.7
57878.7
57878.7
57878.7
57878.7
57878.7
57878.7
57878.7
57878.8
57878.9
57878.9
57878.9
57879
57879.1
57879.2
57879.3
57879.5
57879.7
57879.9
57879.9
57880.1
57880.2
57880.4
57880.6
57880.8
57881
57881.2
57881.3
57881.6
57881.8
57882
57882.3
57882.5
57882.8
57883
57883.3
57883.5
57883.7
57883.8
57883.9
57884
57884
57883.9
57883.9
57883.7
57883.6
57883.5
57883.4
57883.3
57883.2
57883.1
57882.9
57882.7
57882.6
57882.4
57882.2
57882
57881.9
57881.7
57881.6
57881.5
57881.4
57881.4
57881.3
57881.2
57881.2
57881.1
57881.1
57881.1
57881.3
57881.5
57881.9
57882.2
57882.6
57882.9
57883.3
57883.6
57884
57884.3
57884.7
57885
57885.4
57885.7
57886.2
57886.5
57886.9
57887.2
57887.6
57887.7
57887.9
57888
57888.1
57888
57888
57887.9
57887.8
57887.6
57887.5
57887.2
57887.1
57887
57887
57887.1
57887.3
57887.5
57887.8
57888.1
57888.3
57888.7
57888.9
57889.2
57889.4
57889.6
57889.7
57889.8
57889.8
57889.8
57889.7
57889.7
57889.6
57889.6
57889.6
57889.5
57889.5
57889.5
57889.6
57889.7
57889.8
57890.1
57890.3
57890.7
57890.8
57891.1
57891.2
57891.3
57891.4
57891.5
57891.6
57891.7
57891.8
57891.9
57892
57892.1
57892.2
57892.3
57892.4
57892.5
57892.4
57892.5
57892.4
57892.3
57892.2
57892
57891.9
57891.7
57891.5
57891.5
57891.3
57891.3
57891.2
57891.2
57891.1
57891.1
57891
57890.9
57890.8
57890.9
57891
57891.2
57891.4
57891.7
57892.1
57892.6
57893.1
57893.5
57894.1
57894.6
57895.2
57895.6
57896.2
57896.6
57897.1
57897.4
57897.6
57897.7
57897.7
57897.7
57897.6
57897.3
57897
57896.5
57895.9
57895.3
57894.6
57893.9
57893.2
57892.6
57892.1
57891.8
57891.5
57891.4
57891.4
57891.5
57891.8
57892
57892.4
57892.7
57893.2
57893.6
57894.1
57894.5
57895
57895.4
57895.7
57896
57896
57896.2
57896.1
57896.1
57896
57896
57896
57896
57896
57896
57896.1
57896.1
57896.1
57896.1
57896.1
57896.2
57896.3
57896.5
57896.5
57896.7
57896.8
57896.9
57897
57897.2
57897.3
57897.4
57897.5
57897.7
57897.9
57898.1
57898.3
57898.5
57898.6
57898.7
57898.6
57898.6
57898.4
57898.3
57898.1
57897.9
57897.8
57897.8
57897.7
57897.8
57897.9
57898.1
57898.3
57898.5
57898.6
57898.8
57899
57899.2
57899.3
57899.4
57899.5
57899.6
57899.7
57899.7
57899.8
57899.8
57899.8
57899.9
57899.8
57899.8
57899.5
57899.4
57899.2
57899.1
57898.9
57898.9
57898.8
57899
57899.1
57899.3
57899.4
57899.6
57899.7
57899.8
57899.9
57899.9
57899.9
57899.8
57899.8
57899.8
57899.8
57899.7
57899.7
57899.8
57899.8
57900
57900.1
57900.3
57900.4
57900.5
57900.6
57900.7
57900.8
57900.9
57901
57901.2
58976.7
58977.1
58972
58965.4
58953.7
58950.1
58933.2
58922.8
58905.6
58888.2
58869.7
58849.1
58828.5
58805.7
58786.4
58758.4
58737.8
58708.7
58686.4
58659.1
58633.5
58605.6
58580.4
58550.8
58521.6
58491.4
58461.6
58432.2
58403.3
58375.3
58347.6
58321.1
58294.7
58269.9
58245.6
58222.3
58200.6
58180
58161.4
58143.6
58127.4
58111.7
58096.9
58083
58070.4
58058.5
58048.2
58038.6
58030.1
58022.7
58016
58010.1
58004.4
57999
57993.8
57988.8
57984.2
57979.8
57975.6
57971.7
57968.4
57965.4
57962.9
57960.5
57958.5
57956.7
57955
57953.6
57952.2
57951.1
57949.9
57948.7
57947.4
57946
57944.6
57943.3
57941.8
57940.5
57939.1
57937.9
57936.7
57935.6
57934.6
57933.6
57932.5
57931.4
57930.4
57929.2
57927.9
57926.7
57925.5
57924.2
57923
57921.5
57920.3
57919
57917.8
57916.8
57915.7
57914.7
57913.8
57913
57912.3
57911.4
57910.5
57909.5
57908.6
57907.6
57906.5
57905.7
57904.6
57903.6
57902.8
57901.7
57900.9
57899.9
57899
57898
57896.9
57895.7
57894.4
57893.1
57891.9
57890.6
57889.5
57888.6
57887.6
57886.6
57885.6
57884.7
57883.9
57883.1
57882.5
57881.8
57881.1
57880.6
57880
57879.7
57879.3
57879
57878.7
57878.6
57878.3
57878.1
57877.9
57877.4
57877.1
57876.7
57876.4
57876.2
57875.9
57875.7
57875.5
57875.2
57875
57874.7
57874.5
57874.2
57874
57873.6
57873.3
57873.1
57872.8
57872.8
57872.7
57872.7
57872.8
57872.8
57872.9
57872.9
57872.7
57872.7
57872.6
57872.4
57872.1
57872
57871.9
57872
57871.7
57871.6
57871.7
57871.6
57871.7
57871.7
57871.7
57871.7
57871.7
57871.8
57871.9
57872.2
57872.5
57872.8
57872.9
57873.1
57873.5
57873.6
57873.8
57874
57874.2
57874.2
57874.2
57874.2
57874
57874.1
57874
57874.1
57874.1
57874.2
57874.3
57874.3
57874.4
57874.5
57874.7
57874.8
57875
57875.2
57875.1
57875.3
57875.4
57875.7
57876
57876.2
57876.4
57876.6
57876.8
57876.9
57877.1
57877.3
57877.6
57877.7
57878
57878.3
57878.5
57878.8
57879.1
57879.1
57879.2
57879.3
57879.3
57879.2
57879.2
57879
57878.9
57878.7
57878.7
57878.5
57878.6
57878.2
57878.1
57878
57877.8
57877.6
57877.4
57877.3
57877.2
57877.1
57876.9
57876.9
57876.8
57876.6
57876.5
57876.4
57876.3
57876.4
57876.3
57876.5
57876.5
57876.7
57877
57877.5
57877.8
57878.3
57878.7
57879
57879.4
57879.7
57880.1
57880.4
57880.9
57881.1
57881.6
57881.8
57882.3
57882.6
57882.9
57883
57883.3
57883.3
57883.5
57883.3
57883.3
57883.1
57883
57882.8
57882.7
57882.4
57882.4
57882.2
57882.2
57882.5
57882.5
57882.9
57883
57883.4
57883.6
57883.9
57884.2
57884.5
57884.7
57884.8
57884.9
57885.1
57885.1
57885.1
57885.1
57885.1
57885.1
57885
57885
57884.9
57884.9
57884.9
57884.9
57885.2
57885.2
57885.5
57885.7
57886.1
57886.3
57886.4
57886.5
57886.6
57886.7
57886.8
57886.9
57886.9
57887
57887.3
57887.4
57887.6
57887.6
57887.7
57887.7
57887.8
57887.7
57887.7
57887.7
57887.7
57887.4
57887.4
57887.1
57887
57887
57886.9
57886.7
57886.6
57886.5
57886.6
57886.5
57886.4
57886.3
57886.2
57886.3
57886.3
57886.3
57886.5
57886.7
57887
57887.3
57887.8
57888.3
57888.7
57889.4
57889.8
57890.5
57890.8
57891.4
57891.9
57892.3
57892.8
57892.9
57893.1
57893.1
57893
57892.8
57892.6
57892.3
57892
57891.3
57890.8
57890.1
57889.3
57888.8
57888.1
57887.7
57887.3
57887.1
57886.8
57886.9
57886.9
57887.2
57887.4
57887.9
57888.2
57888.7
57889
57889.6
57889.9
57890.4
57890.8
57891.2
57891.3
57891.5
57891.5
57891.5
57891.4
57891.4
57891.4
57891.3
57891.4
57891.5
57891.5
57891.6
57891.5
57891.5
57891.6
57891.6
57891.6
57891.7
57891.8
57892
57892.1
57892.3
57892.4
57892.5
57892.6
57892.6
57892.7
57892.7
57893
57893.1
57893.3
57893.6
57893.8
57893.9
57894.1
57894
57893.9
57893.7
57893.6
57893.5
57893.3
57893.3
57893.2
57893.2
57893.1
57893.4
57893.4
57893.6
57893.8
57893.9
57894.1
57894.2
57894.5
57894.6
57894.8
57894.9
57894.9
57894.9
57894.9
57894.9
57895
57895
57895.1
57895.1
57895.1
57894.9
57894.8
57894.6
57894.5
57894.4
57894.4
57894.3
57894.4
57894.4
57894.7
57894.8
57894.8
57895
57895
57895.1
57895.1
57895
57895
57894.9
57894.9
57895
57894.9
57895
57895
57895.2
57895.4
57895.5
57895.6
57895.7
57895.7
57895.7
57895.8
57895.9
57896.2
57896.3
57896.5
58963
58955
58952.5
58949.6
58945.8
58935.1
58924.8
58909.2
58902.3
58875.4
58859.9
58835.8
58824.4
58799.9
58775.3
58749.7
58724
58699
58674
58650.8
58623.3
58598.2
58567.9
58543.3
58509.6
58484.5
58450.9
58424.2
58394.8
58367.1
58339.2
58311.8
58285.9
58258.9
58237.2
58212.8
58191.5
58170.5
58151.4
58133.8
58117
58101
58086.5
58072.5
58059.3
58048.2
58037.3
58028.5
58020.1
58013
58006.5
58000.5
57995
57989.5
57984.1
57979
57974.4
57970
57966.1
57962.2
57958.8
57955.7
57952.8
57950.7
57948.7
57947
57945.5
57944.1
57942.8
57941.6
57940.3
57939.3
57937.9
57936.8
57935.4
57933.9
57933
57931.5
57930.2
57929
57927.7
57927
57926
57925.3
57924.5
57923.6
57922.4
57921.2
57919.9
57918.5
57916.9
57915.4
57914
57912.8
57911.4
57910.1
57909
57908
57906.9
57906.4
57905.4
57904.7
57903.9
57903
57902.1
57901
57899.9
57899
57898.3
57897.1
57896.4
57895.5
57894.5
57893.6
57892.7
57891.5
57890.6
57889.4
57888.6
57887.5
57886.1
57884.8
57883.5
57882.4
57881.4
57880.2
57879.2
57878.3
57877.2
57876.6
57875.5
57874.7
57873.9
57873.2
57872.7
57872.1
57871.6
57870.9
57870.5
57870.3
57870.1
57869.9
57869.8
57869.3
57869.3
57868.9
57868.6
57868.4
57868.1
57867.7
57867.5
57867.3
57867.1
57866.8
57866.5
57866.2
57865.8
57865.7
57865.6
57865.2
57864.9
57864.6
57864.4
57864
57864
57863.9
57864.1
57864.1
57864.3
57864.5
57864.3
57864.2
57864.3
57864
57863.9
57863.8
57863.5
57863.7
57863.4
57863.2
57863.1
57863
57863
57863
57863
57863.1
57863.1
57863.2
57863.4
57863.6
57864
57864.5
57864.7
57865
57865
57865.3
57865.4
57865.6
57865.7
57865.5
57865.5
57865.6
57865.6
57865.8
57865.9
57865.9
57865.8
57865.8
57865.8
57865.8
57865.8
57865.9
57865.9
57866.1
57866.3
57866.9
57866.9
57867
57867.2
57867.4
57867.7
57868
57868.2
57868.1
57868.2
57868.4
57868.5
57868.7
57868.8
57869.2
57869.6
57869.7
57870.1
57870.4
57870.6
57870.7
57870.7
57870.7
57870.5
57870.5
57870.5
57870.3
57870.1
57870.1
57870
57870.1
57870.1
57870
57869.7
57869.3
57869.3
57869.1
57868.9
57868.6
57868.7
57868.4
57868.3
57868.2
57868.1
57868.2
57867.9
57867.9
57868.1
57867.7
57867.7
57867.7
57867.9
57868.2
57868.6
57868.9
57869.4
57869.8
57870.2
57870.7
57871
57871.4
57871.8
57872
57872.5
57872.8
57873.1
57873.3
57873.8
57874.1
57874.7
57874.6
57874.6
57874.7
57874.8
57874.9
57875
57874.8
57874.8
57874.4
57874.3
57874.1
57873.8
57873.8
57873.7
57873.8
57874.2
57874.2
57874.6
57874.7
57875
57875.3
57875.6
57875.8
57876.2
57876.4
57876.5
57876.6
57876.6
57876.8
57876.5
57876.5
57876.5
57876.5
57876.5
57876.5
57876.5
57876.5
57876.7
57876.9
57876.7
57877.4
57877.6
57878
57878.1
57878.3
57878.2
57878.5
57878.5
57878.7
57878.8
57878.7
57878.9
57878.7
57878.8
57878.9
57878.8
57878.9
57878.9
57879.2
57879.1
57879.1
57879.1
57879.1
57879.1
57879.2
57879.1
57878.8
57878.5
57878.3
57878.2
57878.3
57878.3
57878.2
57878
57877.8
57877.8
57877.5
57877.5
57877.6
57877.8
57877.9
57878.1
57878.3
57878.9
57879.4
57879.8
57880.1
57880.5
57881
57881.6
57882
57882.6
57883
57883.6
57884
57884.2
57884.4
57884.4
57884.4
57884.2
57884.1
57883.8
57883.4
57882.8
57882.2
57881.6
57881
57880.3
57879.7
57879.2
57878.9
57878.7
57878.8
57879.1
57878.9
57879
57879.5
57879.8
57880
57880.6
57881
57881.3
57881.6
57882.2
57882.7
57882.9
57883.1
57883.2
57883.2
57883.4
57883.4
57883.2
57883.2
57883.5
57883.3
57883.3
57883.1
57883.3
57883.2
57883
57882.7
57882.8
57882.9
57882.9
57883.3
57883.2
57883.5
57883.7
57883.8
57883.8
57884
57884
57883.9
57884.1
57884.1
57884.2
57884.6
57885
57885.3
57885.6
57885.8
57885.7
57885.5
57885.4
57885.2
57885.1
57885.2
57885
57884.8
57884.8
57884.8
57884.7
57884.9
57885.1
57885.5
57885.6
57885.9
57886
57886
57886
57886.1
57886.3
57886.4
57886.4
57886.6
57886.5
57886.5
57886.6
57886.5
57886.3
57886.5
57886.4
57886.4
57886.2
57886.2
57886
57885.9
57885.8
57886
57886
57886
57886.1
57886.2
57886.1
57886.2
57886.4
57886.3
57886.3
57886.1
57886.2
57886.2
57886.5
57886.5
57886.4
57886.4
57886.5
57886.6
57886.8
57887.1
57887
57887.6
57887.6
57887.7
57887.5
57887.7
57887.9
57888.2
58947.5
58942.7
58936.3
58935.8
58939.9
58916.5
58917.3
58897
58885.3
58875.1
58859.1
58837.3
58808.1
58785.1
58757.6
58747
58708.6
58690.2
58654.4
58635.2
58608.9
58586.6
58550.7
58528.4
58499.3
58473.2
58441.5
58411
58383.3
58356
58328.2
58301.2
58275.2
58247.5
58221.9
58201.2
58176.5
58157.5
58136.2
58119.7
58102.4
58086.5
58070.9
58058.6
58044.8
58033.3
58023.1
58013.4
58006.1
57998.6
57992.3
57986.8
57981.1
57976.1
57970.4
57965.2
57960.6
57956.6
57952.2
57948.3
57944.9
57942.4
57939.9
57937.4
57935.7
57933.8
57932.4
57931
57929.5
57928.6
57927.5
57926.6
57925.1
57923.7
57922.6
57921.4
57919.9
57918.6
57917.3
57916.3
57915.4
57914.4
57913.7
57913.5
57912.1
57911.4
57909.7
57908.3
57907.2
57905.8
57904.6
57903.2
57901.9
57900.2
57898.8
57897
57896.3
57895.6
57894.6
57893.6
57893.1
57892.3
57892.2
57891.2
57890.6
57889
57888
57887.2
57886.2
57885.5
57884.3
57883.2
57882.4
57881.6
57880.6
57879.6
57878.6
57877.7
57877.4
57876.3
57874.5
57872.9
57871.7
57870.8
57869.7
57868.5
57867.4
57866.6
57865.9
57864.8
57864.3
57862.9
57862.3
57861.5
57860.7
57860.2
57859.7
57859.3
57858.7
57858.3
57858
57858.1
57858.2
57858
57858
57857.3
57857
57856.6
57856.4
57856.1
57856.2
57856
57855.9
57855.4
57854.9
57854.4
57854.4
57854.2
57854.3
57853.5
57852.8
57852.7
57852.3
57852.2
57852
57852.1
57852.3
57852.8
57853.1
57853.6
57852.4
57852.5
57852.7
57852
57851.6
57851.3
57851.6
57852.3
57851.4
57851
57851
57850.9
57851
57851.2
57851.1
57851.2
57851
57850.9
57851.1
57851.4
57852
57852.8
57852.6
57852.6
57852.8
57853.3
57853.6
57853.8
57854
57853.7
57853.7
57853.8
57854
57853.9
57853.5
57853.4
57853.7
57853.7
57853.7
57853.7
57853.8
57853.7
57854
57854.3
57854.6
57855.4
57854.8
57854.9
57855
57855.4
57856.3
57856.3
57856.9
57856.7
57856.5
57856.6
57857.1
57856.9
57856.7
57857.2
57857.5
57858.1
57858.3
57858.5
57859.4
57858.7
57859
57859.3
57858.9
57858.6
57858.9
57858.3
57858.2
57858.2
57858.2
57858
57858.4
57857.3
57857.1
57857.3
57857.5
57856.9
57856.9
57857
57857.3
57856.7
57856.4
57856.9
57856.6
57856.8
57856.7
57856.4
57856.3
57856
57856
57855.7
57856.1
57856.4
57856.9
57857.3
57857.4
57857.8
57858.1
57859.1
57859.3
57859.6
57860.5
57860.6
57861.2
57861
57861.6
57861.6
57862.1
57862.2
57862.3
57862.3
57862.2
57862.9
57863.3
57863
57863.2
57862.7
57862.7
57862.4
57861.9
57861.6
57861.6
57861.3
57861.7
57862.1
57862.2
57862.4
57862.4
57862.8
57863
57863.2
57863.4
57863.8
57864.6
57864.2
57864.5
57865
57864.8
57864.8
57864.9
57865.3
57865.1
57865
57865.3
57865
57865
57865.2
57865.1
57865.7
57866.2
57866.2
57866.1
57866.6
57866.5
57866.5
57866.8
57866.5
57866.5
57866.7
57866.4
57866.5
57866.6
57866.7
57867.1
57867.6
57867.4
57867.6
57867.7
57868
57867.1
57867.5
57867.2
57867.2
57867.3
57867.2
57867.7
57867.3
57867
57866.7
57866.4
57866.4
57866.2
57866.7
57866.4
57866
57865.8
57865.7
57866
57865.9
57866.2
57866.1
57866.4
57866.8
57867.1
57867.9
57867.7
57867.9
57868.4
57868.8
57869.8
57869.9
57870.5
57871.2
57872.1
57872.3
57872.3
57872.5
57872.4
57872.7
57872.7
57872.3
57872.4
57872
57871.1
57870.4
57869.9
57869.1
57868.5
57868.3
57867.8
57867.6
57867.6
57867.4
57867.4
57867.9
57868.2
57867.9
57868.7
57869.2
57869.5
57869.4
57869.7
57870.1
57870.2
57871.6
57871.7
57871.8
57871.7
57872.1
57872
57871.8
57871.9
57871.5
57871.8
57871.5
57872.1
57872
57872.2
57871.4
57871.2
57871.4
57871.1
57871.3
57871.4
57871.2
57871.2
57871.7
57872.5
57872.2
57871.9
57872.6
57872
57872.2
57871.8
57872.2
57872.5
57873
57873.7
57873.8
57874
57874.5
57874.1
57874
57873.8
57873.7
57873.7
57873.6
57874.1
57873.5
57873
57873.2
57873.3
57873.1
57873.6
57874.1
57873.8
57873.8
57874
57874.5
57874.4
57874.4
57874.6
57874.5
57874.5
57874.3
57874.2
57874.5
57874.6
57874.6
57874.6
57875.1
57874.6
57874.7
57874.7
57874.8
57874.5
57874.5
57874.5
57874.3
57874.1
57874.4
57874.5
57874.4
57874.3
57874.3
57874.5
57874.6
57873.9
57873.8
57873.9
57874.2
57874.7
57874.2
57874.2
57874.3
57874.3
57874.8
57874.9
57874.9
57875.4
57875.3
57875.3
57875.5
57875.9
57875.8
57875.8
57876.6
58915.5
58933.5
58926.1
58914.8
58908.5
58908.1
58897.1
58888.5
58865.3
58872.1
58851.6
58835.8
58785.5
58772.8
58752.5
58736.4
58705.1
58671.8
58647.9
58619.1
58597.7
58564.7
58544.5
58517.2
58488.3
58446.6
58430.5
58395.2
58368
58342.3
58312.7
58284.3
58257.2
58236.5
58204.7
58185.5
58161.8
58140
58121.1
58101.5
58083.9
58068.1
58052.3
58037.8
58027.6
58014.2
58005.3
57996.5
57987.4
57980.8
57975
57969.1
57963.5
57958.9
57952.7
57947.3
57942.7
57939.3
57935.1
57930.4
57927.4
57924.7
57922.9
57919.9
57917.8
57916.3
57915.6
57914
57912.4
57911.4
57910.4
57910.4
57908.6
57907.2
57905.8
57904.9
57904.4
57902.6
57901.4
57900.3
57899.5
57899.1
57898
57897.9
57896.1
57896.7
57894.9
57893.2
57892
57890.5
57889.3
57888.2
57887.1
57885.9
57884.3
57882.3
57881.4
57880.2
57879.1
57877.9
57877.2
57877
57877.2
57876.1
57875.7
57874.2
57873
57872.1
57871.9
57870.5
57869.3
57868.5
57867.9
57867.6
57866
57864.5
57864
57862.9
57862.4
57861.1
57859.2
57857.9
57856.7
57855.8
57855.9
57854.4
57853.1
57851.8
57850.6
57849.8
57849.4
57848.9
57847.7
57846.6
57845.9
57845.4
57844.8
57844.5
57843.8
57843.2
57843
57843.2
57843.9
57843
57843.1
57842
57841.9
57841.9
57841.9
57841.7
57841.1
57840.8
57841
57840.2
57839.5
57839.4
57839.6
57839.1
57839.2
57838.3
57837.9
57837.5
57837.5
57837.1
57836.9
57837
57837.3
57838
57837.9
57839
57838
57838.2
57838.7
57837.3
57836.7
57836.7
57836.5
57837.5
57836.9
57836.2
57836.5
57836.2
57836.1
57836.8
57836.3
57836.8
57835.8
57835.8
57835.8
57836
57836.8
57838
57837.7
57838
57838.2
57838.1
57838.6
57839.2
57839.7
57839.6
57839.1
57838.9
57838.9
57839.7
57839.5
57839.2
57838.9
57838.7
57839.1
57838.8
57839
57839.1
57839.2
57839
57839.3
57840.4
57840.1
57840.4
57840.4
57840.7
57841.7
57841.5
57841.7
57841.6
57841.6
57842
57842.8
57842
57842.2
57842.3
57843.2
57844
57843.6
57843.8
57845.1
57844.1
57844
57844.2
57843.4
57843.2
57843.6
57843
57842.6
57842.5
57842.9
57843.3
57843.8
57842.8
57842.4
57842
57842.8
57841.8
57841.3
57841.4
57842.2
57842
57841.6
57842.1
57841.5
57842.3
57842.1
57841.2
57841.7
57840.7
57840.3
57840.7
57840.6
57841
57842.5
57842.6
57842.6
57843.4
57843.5
57844.8
57844.8
57845.1
57846
57845.8
57846.8
57846.5
57846.4
57846.5
57847.1
57847.6
57848.6
57847.9
57848.1
57848.5
57848
57848.2
57848.9
57848.1
57847.4
57847.3
57847.2
57847
57847
57846.8
57846.9
57847.4
57848.1
57847.7
57847.7
57848
57848.2
57847.7
57848.4
57848.7
57849.5
57848.9
57849.1
57849.9
57850
57850.8
57849.9
57850.8
57850.4
57850
57850.7
57850.1
57849.8
57849.9
57850.9
57851.8
57852.5
57851.4
57851.4
57852.2
57852.3
57851.8
57851.8
57851.5
57851.9
57852.6
57852
57851.1
57851.9
57851.8
57852.1
57852.7
57852.2
57852.4
57852
57853.3
57852.9
57852.3
57852.2
57852.2
57852.1
57852.5
57853.5
57852.4
57852.6
57851.9
57851.6
57851.5
57851.6
57852.3
57851.5
57851.1
57851.2
57850.2
57850.8
57850.9
57851.2
57851.3
57851.3
57851.7
57851.9
57853.5
57852.5
57852.8
57853.3
57853.8
57854.7
57854.6
57854.9
57855.6
57856.9
57857.2
57857.2
57857.7
57857.6
57858
57857.2
57857.3
57857.9
57857.4
57856.2
57855.9
57855.6
57854.9
57854.6
57853.7
57853.2
57853.4
57853.3
57853.8
57854
57853.3
57853.3
57853.8
57854.2
57855.6
57855.7
57855
57855.2
57855.4
57856
57857.1
57857.6
57857.1
57857.3
57857.1
57857.6
57857
57857.4
57857.2
57857.8
57857.3
57858
57857.3
57857.9
57856.8
57856.5
57856.4
57856.3
57856
57855.9
57856.6
57856.9
57857.4
57858
57857.8
57857.5
57857.7
57856.9
57856.7
57856.7
57856.6
57856.8
57857.5
57858.7
57858.5
57859.7
57860.1
57859.6
57859.1
57858.5
57858.8
57858.8
57859
57859.6
57858.6
57858.5
57858.4
57858.7
57858.8
57858.6
57859.4
57859.1
57859.5
57859.1
57859.6
57859.1
57859.1
57859.8
57859.5
57859.9
57859.4
57859.3
57859.2
57859.9
57859.4
57859.5
57860.4
57859.6
57860
57860.5
57860.9
57860.3
57860.1
57860.5
57859.8
57859.3
57859.4
57859.6
57858.6
57858.7
57858.9
57859.8
57859.7
57858.8
57858.6
57858.4
57858.6
57859.5
57859.8
57859.6
57859.6
57860.1
57860.3
57859.9
57860.5
57860.3
57860.4
57860.5
57860.9
57860.5
57860.5
57860.8
57861.7
58898.3
58905.2
58913.5
58904.2
58885.8
58896.7
58872.9
58878.5
58864.6
58849.8
58833.3
58810.5
58790.1
58768.1
58744.5
58718
58697.2
58658.4
58642.9
58608
58581.6
58556.5
58535.6
58503
58468.8
58428.2
58403.2
58380.6
58353
58326.8
58297.4
58267.4
58238.4
58211.2
58191.3
58163.8
58146
58119.3
58101.3
58082.3
58061.8
58043.1
58029.9
58013.2
58000.2
57991
57980.7
57972.5
57965.3
57958.7
57953.2
57948
57941.4
57936.6
57930.2
57924.3
57918.7
57915.6
57913.7
57909.7
57906.1
57903.8
57901.4
57898.8
57896.9
57895.1
57894
57893
57892
57891.3
57890.3
57890.2
57888.6
57887.3
57886
57885.4
57885.7
57883.4
57882.5
57881.4
57881.3
57881.2
57879.6
57877.9
57877
57877.3
57876.1
57874.8
57874.1
57872.4
57870.5
57869
57868.9
57868
57865.6
57864.8
57862.8
57862.1
57861.1
57860.6
57858.9
57858.7
57857.7
57857.4
57856
57855
57854.2
57854
57854.5
57853.2
57851.8
57850.8
57849.8
57849.8
57848.1
57847
57846.5
57843.7
57842.4
57841.9
57840.9
57840
57839
57838.7
57838.7
57835.9
57834.8
57834.1
57833.4
57832.7
57833.1
57832.4
57830.3
57828.6
57828
57827
57826.9
57826
57825.5
57825
57824.7
57825.8
57825.8
57824.3
57823.7
57823.8
57824.4
57823.8
57824.4
57824.7
57823.2
57823.1
57822.7
57822.8
57821.8
57821.3
57820.8
57820.9
57820.4
57820.4
57820.1
57820.6
57820.4
57820
57818.9
57818.6
57818.6
57818.9
57819.2
57819.8
57820.7
57819.8
57820.4
57818.8
57818.9
57818.5
57818.4
57817.6
57817.6
57818.4
57818.6
57818
57817.8
57818.3
57817.7
57818.5
57818.2
57817.6
57817.6
57818
57818.4
57818.7
57819.7
57820.3
57820.6
57821.3
57820.6
57821.8
57822.1
57820.5
57820.2
57820.5
57820.6
57820.2
57821.6
57821.4
57821.7
57821
57821.5
57821.1
57820.9
57821.3
57821.8
57820.7
57820.9
57820.8
57821.4
57822.7
57822.5
57822.3
57822.4
57823.3
57823.6
57824
57823.2
57823.6
57824.8
57824.8
57824.9
57825.1
57825.4
57824.8
57825.1
57825.3
57826.4
57826
57825.9
57824.9
57824.9
57824.6
57824.4
57824.3
57824
57824.3
57825.2
57825.2
57823.8
57823.8
57823.2
57823.3
57823.9
57823
57823
57823.2
57822.9
57824
57822.6
57822.4
57822.7
57823.8
57823
57822.9
57824
57823.1
57822.6
57822
57822.2
57822.8
57823
57825.4
57824.8
57825.2
57826
57826.5
57827.1
57826.4
57826.4
57827.2
57828.2
57828.4
57829.1
57829
57829.9
57829.9
57830.8
57830.4
57832
57831.1
57830.6
57830.6
57831.6
57830.6
57830.3
57829.5
57829.3
57829.2
57829.7
57829.5
57829.8
57830.5
57830.9
57829.8
57829.9
57830.6
57830.4
57830.7
57830.3
57830.3
57829.8
57830.1
57830.4
57831
57831.1
57833.2
57831.9
57831.4
57832.5
57831.7
57831.5
57831.9
57832.4
57832.6
57832.9
57833.4
57832.6
57833.3
57833.2
57834
57835
57834.4
57835.1
57834
57833.8
57834.5
57833.8
57833.8
57833.5
57833.2
57833.9
57834.5
57834
57833.5
57834.1
57835.5
57836.4
57834.8
57834.5
57834.3
57833.9
57835.2
57835.8
57834.9
57835.6
57834.5
57833.8
57834.1
57833.9
57834.4
57833.6
57833.1
57833.6
57833.3
57833.3
57833.7
57834.5
57834
57833.5
57833.9
57835
57835.9
57835.2
57834.7
57834.6
57835
57835.7
57835.9
57836.2
57836.6
57837.6
57838.4
57838.6
57839.2
57838.4
57839.7
57839.7
57838.7
57838.2
57838.2
57838.1
57838.1
57838.8
57837.4
57836.5
57836.1
57835.7
57835.5
57836.5
57837.3
57838
57837.4
57836.5
57836.3
57836.7
57836.7
57838
57837.4
57837.2
57837.7
57838.7
57838.6
57839.9
57839.8
57840.1
57839.3
57839.8
57838.7
57838.5
57838.5
57840
57839.3
57839.9
57839.4
57839.5
57838.8
57838.3
57839.2
57838.5
57838.7
57838.6
57838.6
57838.4
57839
57838.1
57839.4
57838.1
57839
57838.2
57838.9
57838.9
57839.2
57839
57839.6
57839.5
57840.4
57841.5
57841
57841.9
57841.8
57841.4
57841.3
57840.7
57841
57840
57840.2
57840.4
57840.4
57841.2
57840.4
57840.6
57840.3
57841.6
57842
57841.2
57840.6
57840.4
57840.7
57841.3
57841.4
57841.8
57841.3
57841.4
57841.6
57842.3
57841.5
57841
57841.7
57841.4
57841.9
57843.2
57843.3
57842.1
57841.9
57841.3
57841.7
57841.5
57842.1
57841.6
57841.2
57840.6
57840.8
57841.9
57840.7
57840
57839.7
57839.7
57840.2
57840.9
57842.2
57841.4
57841.6
57842.1
57843.2
57842.9
57842.8
57842.9
57843.2
57843.9
57844.2
57844.4
57843
57842.4
57842.1
58896.7
58879.6
58892.4
58896.5
58881.2
58865.6
58853.9
58857.4
58852.7
58828
58812.1
58792.6
58792.2
58759
58731.8
58701.7
58673.6
58648.1
58616.9
58590.5
58564.3
58545.8
58512.8
58481.8
58447
58419.5
58380.5
58361.8
58333.7
58304.4
58279.7
58250.1
58219.2
58185.5
58169.8
58143.3
58120
58097.8
58073.6
58057.3
58038
58018.9
58004.9
57990.4
57974.8
57964.2
57955.1
57946.4
57938.5
57932.8
57928.4
57922.1
57915.5
57908.8
57904
57898.8
57893.7
57889.4
57887.7
57883.7
57880.6
57878.4
57875.4
57873
57871.8
57871
57869.6
57868.2
57867.6
57867.3
57866
57865.1
57864.9
57863.9
57863
57862.8
57862.6
57861
57860.4
57858.9
57859.2
57858.1
57856.4
57853.9
57853.9
57852.1
57853.2
57852
57852.5
57851.2
57848.4
57846.9
57846.2
57843.9
57842.6
57842.8
57842.2
57841.6
57839.9
57839.1
57838.6
57838.4
57836.5
57836.5
57834.4
57833.9
57833.4
57832.4
57831.6
57832.1
57830.8
57829.7
57828.9
57827
57826.1
57825.5
57825.4
57823
57821.3
57820
57819.6
57819.4
57818
57817.9
57815.2
57814.8
57814.5
57813.1
57812.4
57811.3
57812
57809.5
57808.7
57806.9
57806.3
57806.3
57805.6
57804.8
57803.6
57803.3
57803.6
57804.2
57802.9
57803.2
57802.1
57802.5
57803.7
57803.3
57802.8
57803.6
57802.2
57802.2
57800.9
57801.6
57800.2
57800.7
57800.6
57799.5
57798.3
57799.2
57799.3
57799.7
57798.1
57798.8
57797.7
57797.1
57797.3
57797.5
57798.2
57798.2
57797.8
57798.8
57799.3
57798.3
57797.3
57797
57796.6
57796.4
57796.6
57795.9
57796.5
57797.1
57796.8
57796.1
57796.6
57796.6
57797.8
57796.9
57796.8
57796.4
57796.4
57797.3
57798.8
57798.8
57800
57801
57799.5
57798.7
57799.7
57798.7
57800.7
57799.7
57799.5
57798.4
57799
57800.3
57800
57798.9
57799.3
57799.2
57799.4
57799.7
57800.8
57799.8
57800.1
57800
57801.2
57802.3
57802.1
57800.6
57800.5
57802.4
57802
57803.2
57802.3
57802.7
57802.1
57802.8
57804.3
57803.7
57803.9
57803.3
57803.7
57803.8
57803.5
57803.9
57804.7
57804.2
57803.5
57803
57802.3
57803.1
57802.9
57803.2
57803.8
57801.6
57801.2
57803
57802
57801.2
57801.1
57801.8
57801.5
57802.3
57801.8
57802.8
57801.8
57800.7
57801.3
57800.4
57800.7
57801
57801
57802.2
57801.9
57801.2
57802.3
57803.1
57803.6
57805.7
57804.7
57805.6
57806.7
57806.4
57806.4
57805.5
57804.6
57805.3
57806.5
57808.1
57808.9
57808
57808.9
57807.8
57808.4
57809.5
57811.3
57810.4
57809.9
57809.5
57810.2
57809.4
57810.2
57808.5
57808
57808.1
57809.1
57809.4
57808.4
57808.9
57807.8
57808.9
57809.3
57810.3
57811
57811.5
57810.4
57809.9
57808.2
57808
57808.3
57808.6
57809.5
57810.6
57810.5
57810.1
57811
57810.2
57810.7
57812.2
57812.7
57812.4
57812.9
57812.1
57811.6
57811.9
57811.5
57811.7
57812.8
57813.3
57814.6
57812.7
57812.7
57811.8
57812.6
57812.3
57812.1
57813.6
57813.3
57813
57813.7
57813.2
57813.4
57812.8
57812.3
57812.8
57814
57814.5
57814
57814.5
57813
57812.8
57813.9
57814
57813
57813.5
57811.8
57811.9
57812.6
57812.1
57812
57813.5
57813.1
57812.7
57814.7
57814.4
57813.8
57813.9
57815.4
57814
57815.1
57814.6
57814
57814.7
57814.9
57815.4
57815.1
57815.9
57816.7
57816.8
57816.9
57816.3
57816.5
57816.7
57818.5
57817.1
57815.6
57816
57816
57817.4
57818.5
57816.9
57816.8
57815.5
57815.3
57815.7
57816.2
57816.3
57817.6
57818.5
57816.7
57816.7
57815.5
57815.6
57816.8
57816
57816.2
57816.9
57816.9
57817.1
57816.6
57818.4
57817
57817.7
57816.6
57817.1
57816.4
57816.8
57816.6
57817.4
57818.4
57817.8
57817.6
57818.1
57817.2
57819.1
57818.9
57819.2
57818
57817.5
57817
57816.8
57816.3
57817
57816.2
57817.1
57817.2
57818
57818.9
57818.5
57818.1
57818.5
57817.6
57818.6
57818
57818.6
57819.7
57820.4
57820
57820.8
57820
57819.8
57818.5
57819
57819.1
57820.1
57821.1
57820.8
57819.5
57819
57820.6
57819.2
57820.1
57818.6
57819
57819.4
57819.4
57819.5
57819.2
57820.5
57820.6
57820.1
57819.4
57820.3
57819.4
57819
57819.4
57820.6
57821.8
57822.1
57821.1
57820.8
57820.1
57821
57820.1
57821.4
57820
57819.4
57819.4
57819.6
57820.6
57819.5
57819.1
57819.5
57818.7
57819.3
57819.1
57819
57820.8
57821.3
57821.5
57822.4
57822.6
57823
57822.9
57822.4
57823.7
57823.4
57824.2
57821.6
57820.3
57820
58898.1
58880.8
58881.6
58866.9
58862
58848.3
58848
58830.5
58817.3
58804.7
58785.1
58771.4
58754.3
58735
58711.2
58680.9
58655.5
58637.6
58605.3
58587.4
58549.4
58525.5
58491
58459.6
58437.6
58416.3
58383.9
58354.7
58319
58286.7
58255.2
58228.3
58195.6
58166.4
58135.3
58116.7
58096.8
58078
58051.7
58029.7
58012.7
57999.1
57979.1
57964.6
57949.9
57937.2
57928.5
57919
57909.7
57902.7
57898.8
57892.1
57885.1
57878.1
57872.6
57868
57864.9
57859
57857.2
57854.6
57851.4
57847.3
57845.8
57844
57844
57843.8
57841.7
57840.7
57840.4
57840.1
57840
57837.9
57838.5
57837.4
57835.8
57834.5
57835.7
57834.5
57833.1
57832
57830.1
57830.8
57828.7
57826.6
57826.5
57826
57826.4
57826.4
57826
57825.1
57822.5
57821.3
57820
57818.2
57817.7
57818
57818.7
57817.7
57816.2
57814.7
57814.7
57814.1
57811.3
57811.4
57809.4
57809.5
57809.7
57808.8
57807.4
57807.7
57806.5
57806
57805.8
57802.8
57802.2
57801.3
57801.1
57799.2
57796.4
57795.5
57795.5
57795.2
57794.2
57793.1
57790.3
57791.7
57791
57789.8
57788.8
57788.3
57786.8
57784.8
57783.9
57783
57782.3
57782.2
57782.2
57781.8
57780.3
57780
57779.7
57777.6
57778.2
57778.6
57777.1
57777.6
57778.6
57778.8
57777.3
57777.1
57776
57776.6
57775.4
57776.2
57775.9
57776.3
57774.7
57773.3
57772.6