/*--------------------------------*- C++ -*----------------------------------*\
| =========                 |                                                 |
| \\      /  F ield         | OpenFOAM: The Open Source CFD Toolbox           |
|  \\    /   O peration     | Version:  v2012                                 |
|   \\  /    A nd           | Website:  www.openfoam.com                      |
|    \\/     M anipulation  |                                                 |
\*---------------------------------------------------------------------------*/
FoamFile
{
    version     2.0;
    format      ascii;
    class       surfaceScalarField;
    location    "200";
    object      phi;
}
// * * * * * * * * * * * * * * * * * * * * * * * * * * * * * * * * * * * * * //

dimensions      [1 0 -1 0 0 0 0];
oriented        oriented;


internalField   nonuniform List<scalar> 
130432
(
91.2783
-93.3483
179.422
-88.9865
264.2
-86.0236
346.491
-83.4545
426.296
-80.8485
503.767
-78.6742
579.626
-77.0674
655.131
-77.0866
729.553
-76.4791
804.594
-76.3177
880.531
-77.6622
956.233
-76.9274
1028.25
-73.6827
1099.11
-72.6105
1169.52
-72.0121
1237.76
-69.5061
1304.41
-67.7852
1370.87
-67.251
1433.04
-62.8853
1491.84
-59.6397
1550.06
-59.0686
1604.56
-55.4019
1655.39
-51.2716
1702.89
-48.6902
1748.05
-46.1614
1789.45
-42.6453
1826.57
-37.419
1857.59
-32.0532
1882.9
-25.9762
1905.82
-23.7028
1929.2
-24.4034
1950.97
-22.7002
1968.87
-18.817
1983.21
-15.1818
1994.93
-12.5527
2003.74
-9.63729
2008.87
-5.97076
2010.03
-2.01331
2008.19
0.981096
2003.41
3.94995
1995.93
6.6191
1985.18
9.92058
1970.75
13.6207
1954.42
15.5885
1934.57
19.1835
1912.26
21.731
1889.99
21.8062
1866.85
22.7502
1843.16
23.3879
1817.49
25.4127
1789.09
28.1855
1761.07
27.8123
1733.26
27.5869
1704.46
28.5941
1674.17
30.0552
1641.9
32.0402
1610.27
31.3844
1578.99
31.0577
1546.07
32.7296
1511.45
34.468
1476.12
35.235
1442.9
33.1871
1409.83
33.1113
1374.75
35.1644
1340.04
34.8114
1306.16
33.9949
1273.81
32.4908
1243.23
30.7196
1211.48
31.8745
1178.91
32.6755
1147.76
31.2293
1118.13
29.698
1088.79
29.3715
1059.68
29.1236
1032.07
27.617
1005.29
26.7841
978.888
26.377
953.228
25.6533
927.172
26.0566
900.389
26.7847
874.836
25.5631
851.586
23.246
829.18
22.4055
808.044
21.1165
788.735
19.275
768.585
20.1238
747.914
20.6322
728.519
19.3713
709.104
19.4033
690.673
18.427
673.541
17.1396
656.596
16.9666
638.655
17.9747
620.147
18.5467
602.12
18.0816
585.289
16.8954
568.897
16.4531
552.39
16.5674
535.915
16.5342
520.643
15.3229
506.462
14.2323
492.27
14.2425
478.718
13.603
465.341
13.4387
452.399
12.9973
440.27
12.1864
428.875
11.4497
417.24
11.682
406.24
11.0289
396.607
9.66382
387.038
9.58064
376.599
10.4438
365.707
10.8974
355.153
10.5574
345.493
9.661
335.366
10.135
324.856
10.5118
315.293
9.57878
307.123
8.16872
300.218
6.91028
293.057
7.16842
286.087
6.97245
279.86
6.22053
273.962
5.87583
268.524
5.401
263.028
5.44581
257.106
5.86675
250.31
6.74779
242.328
7.94442
234.315
7.97444
227.321
6.96627
220.651
6.64658
213.206
7.44195
206.065
7.15027
198.898
7.18753
192.087
6.83196
187.077
5.05177
183.172
3.96038
179.419
3.80677
175.397
4.07299
170.349
5.08951
164.619
5.76705
158.951
5.7164
154.081
4.91343
150.717
3.4074
147.853
2.89999
145.741
2.13421
143.649
2.09938
140.468
3.186
136.634
3.82744
132.897
3.72974
129.033
3.86097
125.652
3.38839
123.799
1.87764
122.753
1.08365
121.152
1.65198
118.51
2.71398
116.433
2.15536
115.152
1.3533
113.171
2.0508
109.635
3.60622
105.737
3.96247
101.864
3.93159
96.9389
4.98719
92.4771
4.52081
88.6673
3.87276
86.213
2.51752
84.9159
1.36673
83.1746
1.79233
80.8851
2.33921
77.1683
3.74994
73.6029
3.59512
70.23
3.42015
67.4055
2.86108
66.05
1.3988
64.7732
1.31151
64.0472
0.776491
64.0666
0.0179703
64.6374
-0.522107
64.7903
-0.088654
64.311
0.528395
63.7746
0.582487
62.4079
1.39643
61.4265
1.00474
61.7321
-0.303793
61.079
0.656492
59.0372
2.03736
56.4407
2.58402
53.3715
3.0573
50.8856
2.47513
48.325
2.55514
46.2658
2.06069
44.2514
2.01743
42.8055
1.44477
43.0673
-0.249737
43.4118
-0.318964
43.0368
0.391131
41.4872
1.56064
39.5325
1.96401
37.479
2.08398
36.3352
1.1707
36.1413
0.232815
35.889
0.301994
36.5808
-0.649667
36.3653
0.268997
34.4438
1.98583
32.914
1.60127
32.0726
0.929327
31.7157
0.442561
30.8604
0.958961
30.2269
0.737427
30.2258
0.106649
29.7442
0.573574
28.7877
1.03294
27.8506
0.993015
27.3061
0.563935
26.6782
0.649843
25.5652
1.13744
23.4119
2.17682
21.6741
1.76105
21.825
-0.129244
21.7171
0.134337
21.2815
0.464014
21.5616
-0.243845
21.933
-0.348155
22.5415
-0.586123
22.9497
-0.380853
23.6319
-0.660177
23.5332
0.115216
22.3823
1.15624
21.8206
0.555966
21.2444
0.562985
19.8071
1.41002
17.5366
2.23638
15.5216
2.00079
14.1843
1.31596
12.8643
1.30468
13.0952
-0.222853
14.6591
-1.54686
15.692
-1.01198
17.1142
-1.39882
17.2287
-0.0784559
16.1296
1.14484
15.719
0.465874
15.4607
0.314606
14.8903
0.624075
14.2065
0.734144
13.7467
0.516117
13.5624
0.238586
13.4116
0.217945
12.3958
1.0864
11.5194
0.932529
10.9783
0.60168
10.4688
0.576109
11.3059
-0.779295
11.4864
-0.113184
11.3251
0.232673
12.6403
-1.23483
13.535
-0.817078
14.5219
-0.907234
16.0588
-1.4661
15.4226
0.689259
13.9701
1.49173
12.4636
1.54645
10.6944
1.81151
9.48026
1.24317
8.33503
1.16849
7.89645
0.451785
7.74005
0.161721
7.53083
0.202639
7.84846
-0.321696
8.46064
-0.632476
7.85486
0.589296
6.21928
1.6051
4.69656
1.48381
3.8891
0.764893
3.96601
-0.114237
4.53856
-0.597155
5.53973
-1.02327
7.0724
-1.54022
8.37827
-1.30137
8.35363
0.0290846
6.92926
1.4261
5.01509
1.91817
4.64721
0.356891
5.10516
-0.434609
5.77752
-0.6412
6.77088
-0.94606
7.82754
-1.00335
7.84767
0.0303531
7.44112
0.469831
7.02331
0.485492
6.27303
0.832007
4.93776
1.43249
3.18372
1.85443
1.90946
1.38557
1.02334
1.00771
0.329395
0.814386
0.507526
-0.048812
0.619055
0.00900195
0.223761
0.509121
-0.0149234
0.3438
-0.0401013
0.118613
1.17164
-1.1231
3.59356
-2.3508
5.55736
-1.8953
5.44692
0.161946
4.02725
1.46978
2.72049
1.3325
1.81083
0.939215
1.70754
0.131985
3.48261
-1.746
4.11482
-0.603112
3.69584
0.443694
3.90206
-0.166226
3.56123
0.384837
2.82505
0.774471
2.28616
0.578358
2.7756
-0.455234
2.48793
0.310002
1.64191
0.874801
0.983103
0.683702
0.115779
0.884687
0.0099918
0.12194
0.19409
-0.165265
0.371327
-0.174052
1.73069
-1.36344
3.48986
-1.75935
6.22305
-2.75784
9.75795
-3.5602
11.1323
-1.39751
10.9964
0.103877
10.5527
0.416624
9.41104
1.1286
7.19592
2.20676
4.54288
2.67261
2.01766
2.56076
-0.306063
2.38755
-2.38161
2.16689
-3.12628
0.872202
-2.77205
-0.21041
-1.75469
-0.862281
-0.24168
-1.35375
1.14177
-1.22618
2.63709
-1.36363
4.28325
-1.53805
5.1754
-0.81492
6.12155
-0.905247
7.41975
-1.28134
7.7307
-0.322081
7.1424
0.579395
5.70928
1.41811
3.71049
1.98576
1.94938
1.77146
1.08025
0.889866
0.667022
0.447363
1.0501
-0.334516
2.5142
-1.40243
3.76922
-1.18321
4.94001
-1.0894
5.98725
-0.969473
6.30073
-0.221969
6.48273
-0.0980288
6.6657
-0.106437
6.42777
0.314354
5.65218
0.836917
4.80823
0.906147
3.94455
0.920344
3.33452
0.658814
3.31527
0.0598901
3.2635
0.0759834
3.92659
-0.635192
4.06094
-0.107943
3.50621
0.586467
3.42745
0.130657
3.01198
0.472894
2.5131
0.570143
2.27505
0.327325
2.77451
-0.387721
2.53885
0.348531
1.24246
1.40856
1.16272
0.176057
1.24576
0.0106423
0.610885
0.714071
0.707944
-0.0285992
1.25653
-0.511831
1.91875
-0.634577
1.44503
0.495307
0.664644
0.787327
0.462742
0.20239
-0.177208
0.635939
0.349268
-0.517506
1.13958
-0.777269
1.53574
-0.357261
2.50764
-0.91995
2.93079
-0.357607
2.93455
0.0798305
2.49419
0.522767
1.8497
0.714925
0.68904
1.24692
-0.976763
1.74114
-2.62276
1.70727
-2.99043
0.43414
-1.35353
-1.56781
-0.715395
-0.574827
-1.20872
0.550741
-0.810598
-0.339647
1.03307
-1.77714
3.25908
-2.16269
4.6137
-1.2909
5.0341
-0.362251
4.46408
0.627649
3.25431
1.24686
1.6881
1.60916
-0.52214
2.24598
-1.44752
0.958023
-0.38063
-1.033
0.966139
-1.31887
1.85151
-0.858185
1.6667
0.211611
1.36594
0.339241
1.92464
-0.517186
3.03366
-1.06607
3.37616
-0.320342
2.79088
0.609951
1.85036
0.972658
0.293003
1.58408
-1.57723
1.90785
-3.46585
1.93797
-5.38405
1.96447
-6.73385
1.41376
-7.03751
0.372849
-5.88144
-1.09651
-5.29676
-0.52852
-4.25276
-0.97708
-2.07653
-2.09223
-0.668428
-1.34397
0.681994
-1.27413
1.24507
-0.500355
2.25509
-0.939457
2.83308
-0.51646
3.47865
-0.6035
4.29303
-0.786407
4.20232
0.106741
4.10794
0.0961792
4.28085
-0.19143
4.74584
-0.492822
5.19701
-0.485208
4.9615
0.192919
4.73349
0.183013
5.49617
-0.815113
6.2161
-0.775422
6.78599
-0.623109
6.3766
0.381068
5.66108
0.69585
5.11441
0.54039
3.63509
1.48634
1.57225
2.0657
0.429302
1.14973
0.51767
-0.0871025
0.513945
0.012179
-0.496332
1.02627
-1.58367
1.11405
-1.72772
0.186344
-2.226
0.555317
-2.45907
0.2995
-1.6258
-0.761703
-0.837579
-0.714419
0.329688
-1.08853
2.25117
-1.84837
3.50024
-1.17229
3.21471
0.367548
2.29799
0.997792
1.90391
0.475941
1.10504
0.874073
-0.172926
1.35859
-1.37013
1.26045
-2.44708
1.13144
-3.2626
0.864743
-3.59975
0.373391
-3.94569
0.378812
-3.59287
-0.326759
-2.52547
-1.04065
-1.64642
-0.870099
-0.724385
-0.917586
-0.869816
0.150842
-1.87584
1.01428
-1.48419
-0.385087
-0.202374
-1.27688
-0.166338
-0.0260284
0.259745
-0.403995
2.31313
-2.02219
3.55711
-1.21194
3.32776
0.26543
2.72093
0.647157
1.56232
1.19454
0.657693
0.927492
0.500445
0.175969
0.0667186
0.445285
-0.0973023
0.181862
0.220284
-0.305274
0.96455
-0.731967
0.689086
0.28604
-0.105117
0.797303
-0.422764
0.316368
-1.45129
1.01191
-1.98831
0.511053
-1.85484
-0.166258
-1.60744
-0.262532
-1.61999
-0.0144506
-1.49036
-0.151897
-1.51139
87.4795
-182.142
172.125
-174.345
254.191
-168.751
335.698
-165.215
415.834
-163.476
496.94
-159.506
572.548
-155.06
647.958
-152.776
723.728
-153.965
799.455
-154.313
874.335
-154.863
948.732
-153.61
1021.73
-148.207
1092.72
-145.272
1164.48
-144.064
1232.35
-139.883
1299.57
-135.252
1365.45
-135.094
1428.39
-126.097
1485.36
-117.709
1542.34
-116.744
1596.66
-111.294
1647.34
-102.664
1695.39
-98.036
1740.64
-92.5401
1781.08
-84.471
1816.46
-74.3106
1846.12
-62.9924
1872.64
-53.8376
1897.42
-49.7315
1918.22
-46.4624
1936.73
-42.2947
1955.55
-38.8092
1972.64
-33.1801
1984.88
-25.713
1992.35
-18.0473
1996.94
-11.45
1998.08
-4.08048
1998.3
-0.0670585
1996.13
5.14655
1988.17
13.807
1976.55
20.7877
1961.9
27.5436
1944.75
31.9687
1925.78
37.5716
1903.42
43.5237
1878.1
46.7044
1853.03
47.4773
1829.65
46.4502
1806.28
48.5538
1781.6
52.6481
1753.96
55.2555
1724.44
56.9213
1695.24
57.5407
1666.25
58.8163
1636.62
61.4347
1604.16
63.6246
1569.49
65.5143
1534.67
67.3555
1500.79
68.1979
1468.36
67.5672
1434.98
66.5497
1400.54
67.5616
1366.95
68.8298
1333.5
68.3486
1300.76
66.8882
1268.46
64.9056
1235.98
63.3309
1204.58
63.4051
1173.69
63.6844
1142.9
62.093
1112.84
59.7965
1083.77
58.4718
1055.49
57.4047
1027.36
55.7385
999.926
54.175
972.503
53.8241
945.736
52.4507
920.995
50.7859
896.831
50.9623
872.056
50.3228
847.337
47.9819
824.56
45.1556
803.279
42.3828
781.764
40.761
761.414
40.3687
741.947
40.1179
723.347
37.9732
705.807
36.9159
687.941
36.2894
669.13
35.9524
650.252
35.8622
631.986
36.2959
614.625
35.9748
597.682
35.1364
581.336
33.3637
565.561
32.3356
550.012
32.1729
533.931
32.6686
517.262
32.0425
501.634
29.9301
487.779
28.1849
474.308
27.1471
462.001
25.7701
451.558
23.4941
440.342
23.4516
428.568
23.2754
416.476
23.8077
404.453
23.0625
392.782
21.3273
381.768
20.6138
371.712
20.5242
363.2
19.4215
354.227
19.5016
342.737
21.1484
330.796
22.0906
321.514
19.8416
313.699
17.4213
304.523
17.3905
295.347
16.1136
288.568
13.9588
283.852
11.682
279.617
10.4603
273.57
11.8901
265.346
13.5567
258.36
12.4085
252.507
11.7185
246.165
13.0446
240.547
13.4934
234.671
13.8038
226.535
15.0579
218.846
14.3302
212.406
13.8609
205.965
13.5927
199.585
13.5934
193.041
13.4909
187.108
11.0389
183.471
7.65193
179.621
7.69209
174.075
9.65694
168.846
10.3785
163.96
10.7282
159.688
9.96251
155.98
8.64851
152.084
7.33145
148.335
6.67858
145.075
5.43221
141.889
5.31094
137.713
7.33805
132.709
8.85241
129.817
6.60748
128.285
5.37426
126.73
4.93403
124.988
3.59505
122.642
3.4436
120.43
3.90748
116.839
6.3588
114.07
4.96647
112.364
3.13498
109.824
4.66691
106.084
7.40117
101.052
9.04789
97.0729
7.97399
93.8881
8.24484
91.5132
6.96511
88.4564
7.01242
86.3892
4.66539
85.3386
2.44903
82.1747
5.00976
79.905
4.57519
77.4804
6.21467
74.3228
6.81277
71.6712
6.05875
70.5204
4.07313
70.4446
1.51867
68.7226
3.12126
65.7944
3.73883
63.2098
2.69316
63.7527
-0.965619
65.5551
-1.85015
64.7377
1.43222
62.1381
3.21656
59.3297
4.21891
57.7724
2.52936
57.093
0.379383
56.3843
1.31962
56.5633
1.83535
56.3601
2.80135
55.1754
4.24597
53.7726
3.88353
50.3818
5.94939
47.5826
4.85834
44.6733
4.93756
41.6765
4.48896
41.528
-0.039231
40.9815
0.194637
39.1325
2.25617
38.807
1.93363
39.8725
0.987664
39.0033
3.02743
37.5156
2.7929
36.5171
1.31562
34.6143
2.23891
33.2433
0.832858
33.6813
-0.0620524
34.8959
0.874221
34.7333
1.87118
32.811
2.93439
30.4716
2.93886
28.9269
2.63513
28.8725
0.948579
29.3197
-0.222647
30.205
-0.185586
31.2316
0.0541942
31.6711
0.588186
30.8684
1.44703
28.1919
3.35904
25.1623
4.1924
23.5237
3.82547
23.0182
2.29715
23.1332
-0.215178
22.6223
0.662828
21.4308
1.67408
20.7301
0.466951
19.6757
0.742661
20.8163
-1.72396
23.8494
-3.45284
25.3953
-2.22451
24.5198
1.01525
22.1798
3.48263
20.2867
2.43543
18.3566
2.46877
17.9941
1.74764
19.2469
0.947881
18.7128
2.42738
16.5159
3.47919
14.6466
3.17208
13.8579
0.548091
13.5479
-1.23132
13.0618
-0.504447
14.4469
-2.75164
15.0184
-0.622976
12.5556
3.64342
10.6698
2.3753
10.8729
0.15417
13.6003
-2.06107
16.2368
-1.83317
15.3337
1.48594
12.9667
2.70511
12.0395
1.18382
13.1223
-0.00576838
14.6182
-0.490997
13.6946
1.57513
10.8139
3.49133
10.3779
-0.273638
11.8107
-1.45405
12.9261
-0.802635
14.3187
-2.57053
14.314
-0.742022
13.598
-0.185023
15.1334
-2.96517
16.1604
-0.290376
14.3232
3.34179
10.9902
4.90868
9.19449
3.59061
9.04893
1.43463
7.42479
2.80651
6.16694
1.72034
6.71843
-0.421947
8.01497
-1.06406
7.95565
-0.279389
6.63463
0.71407
6.58002
0.625896
6.58826
1.54959
4.82228
3.24545
4.3098
1.26167
4.54197
-0.367085
3.26527
0.656775
2.94907
-0.678472
5.60653
-4.20324
8.30568
-4.02406
7.93948
0.393421
6.94964
2.41293
6.58418
2.27633
5.94617
1.05552
4.14381
1.40084
3.29258
0.311741
6.08496
-3.71151
9.5753
-4.47174
9.57394
0.0819201
9.75089
0.320586
10.3156
-0.000534498
8.20385
3.00218
5.40081
4.29925
4.53895
2.84134
3.97408
2.06949
2.62828
2.50177
1.90431
1.68729
1.33267
0.643669
0.269766
1.20773
0.289999
0.571835
0.418102
0.346881
0.169592
0.472489
2.20564
-3.05568
4.68781
-4.73925
5.48532
-2.64455
5.41826
0.30521
4.81775
2.11153
3.49484
2.70891
2.42711
2.02379
1.73184
0.859149
2.44355
-2.4107
1.97199
-0.0727571
1.92322
0.547058
3.50443
-1.71886
2.52268
1.39427
0.608238
2.7409
0.436477
0.766768
3.28303
-3.27535
5.31129
-1.64951
4.75629
1.42606
2.72325
2.70358
0.454313
3.18312
1.19178
-0.603538
1.44445
-0.470561
0.08734
1.15011
0.241508
-1.49704
0.560512
-2.08647
2.6636
-4.80038
7.18399
-8.09456
10.6681
-4.93729
11.544
-0.785045
10.0136
1.94447
7.94056
3.15719
5.82678
4.36747
2.63237
5.90779
1.18414
4.07182
0.967401
2.72314
-0.840262
4.07688
-0.620532
0.741712
0.0652126
-0.779645
-0.967687
0.323096
-1.22223
-0.972005
-0.197516
-2.17023
3.07991
-4.52159
7.51234
-5.89162
8.23636
-1.44994
7.35605
0.0748421
7.71008
-1.60259
7.01895
0.395923
5.57027
1.93528
5.00289
1.93394
4.10144
2.92022
1.84607
4.02605
0.517955
2.23713
-0.938573
1.93911
-2.56804
1.34908
-1.09595
-2.78729
1.97679
-4.17016
4.66662
-3.68703
6.45825
-2.6504
6.53611
-0.245671
6.84484
-0.338225
7.01213
-0.203086
6.09998
1.22751
6.02277
0.996904
5.88951
1.09535
4.31337
2.53878
2.09847
2.85568
0.894777
1.2326
1.04288
-0.041241
3.73287
-3.31171
5.71265
-2.03912
4.92783
1.43124
4.29754
0.800861
3.56898
1.2563
2.57194
1.65453
1.43814
1.57064
1.18691
-0.0488945
1.40356
0.259403
1.91063
1.00078
3.59321
-1.36685
4.73332
-1.01655
4.02054
1.48868
1.87808
2.11215
0.0836123
1.31006
0.767968
-1.30522
1.894
-0.639832
1.64709
1.02241
0.239012
1.63854
-1.53121
2.44774
0.439362
-2.47192
2.67672
-2.92755
2.50089
-0.163106
3.25778
-1.60825
3.03624
-0.0428325
2.15292
1.03083
2.44764
0.308602
3.32617
-0.0281592
2.14992
2.44804
-0.70443
4.6523
-2.8015
3.89164
-2.84631
0.526535
-1.9835
-2.40135
-3.08015
0.556113
-4.34594
1.862
-3.51775
-1.09479
-0.825974
-4.40155
2.58777
-5.45489
5.53671
-4.15726
7.07718
-1.84309
6.2822
1.4354
3.53882
4.06018
0.439118
4.70644
-1.16638
3.84196
-0.211687
0.027245
1.20412
-2.43261
1.1962
-1.2768
1.19235
-0.848639
1.45426
0.00498977
1.85316
-0.040513
1.62294
-0.283984
1.49648
-0.96764
1.32094
-0.0994884
-0.265562
2.23077
-1.72203
2.4459
-1.96469
1.88669
-0.914343
0.886271
-1.2602
2.31968
-3.3032
4.10342
-3.94545
2.15648
-3.68169
0.164807
-3.1119
-1.58954
-3.91484
0.375142
-3.32878
-1.47688
-1.45648
-3.9271
-1.02656
-1.69066
1.28293
-3.53935
3.25985
-2.41572
4.20107
-1.83487
4.31074
-0.601038
3.79442
-0.0589964
3.38946
-0.356846
3.04336
0.438478
3.199
-0.0985723
3.03643
-0.0401329
2.64675
-0.120724
3.62149
-1.4922
4.47361
-0.712383
3.78346
0.800289
2.84229
0.0660622
1.97047
0.0342279
2.41417
-1.09868
3.68979
-0.952232
4.69271
-0.32691
4.7848
0.423887
4.84446
1.41282
4.23889
2.68317
2.12278
3.25235
1.1068
0.948584
0.64439
0.490762
-1.07522
2.7647
-0.725778
0.790516
0.594119
-1.08728
-0.252023
1.44658
-0.140571
0.238119
0.0913126
-0.92608
-0.660949
0.101734
-0.278489
-1.39873
0.659709
-2.70685
2.32429
-2.74849
2.76001
0.00353187
1.16977
2.63448
1.97228
-0.272494
2.46113
0.455537
0.470719
3.358
-1.54269
3.31434
-4.19973
3.83845
-6.05448
2.76469
-6.06735
0.43738
-5.34781
-0.305138
-1.83061
-3.81733
2.30398
-5.1878
3.42377
-1.97967
2.54769
-0.0532562
0.0960917
2.59609
-2.46076
3.54493
-3.45895
0.578594
-3.50886
-1.21115
-3.60076
0.0803906
-2.95046
-1.05977
-0.0114143
-4.94524
3.35003
-4.50858
4.80562
-1.09878
4.80287
0.677375
3.75837
2.26855
2.5344
2.19161
0.708919
2.01139
-1.94781
3.13017
-3.13379
1.37194
-2.63759
-0.755333
0.456207
-3.79296
3.21358
-2.46205
3.48442
0.522895
2.57732
1.22863
0.467881
3.10177
0.18722
0.786647
0.050783
-0.046832
-1.53979
1.23797
-3.10495
1.52692
-3.2589
-0.0198411
-4.78473
81.9737
-264.264
161.639
-257.095
240.511
-249.687
320.311
-246.051
403.28
-246.468
486.285
-244.509
566.532
-236.384
641.629
-231.718
720.746
-232.759
797.336
-234.987
872.185
-231.083
943.403
-229.127
1018.41
-223.173
1090.97
-219.539
1161.73
-217.096
1230.76
-210.888
1296.78
-203.241
1361.83
-200.884
1424.21
-189.793
1482.27
-176.281
1536.91
-172.885
1591.31
-166.424
1641.72
-155.985
1690.37
-147.328
1733.04
-137.66
1772.28
-124.017
1805.69
-110.298
1835.64
-94.0553
1863.99
-83.8151
1891.15
-78.1772
1913.14
-69.6287
1932.09
-62.616
1951.06
-58.6722
1966.53
-50.3983
1977.62
-37.5163
1984.35
-26.2132
1989.58
-17.5064
1990.06
-5.5202
1988.06
1.14702
1984.64
7.99185
1976.02
21.6574
1964.78
31.0982
1951.53
40.158
1935.07
47.8732
1917.08
54.8289
1896.74
63.4944
1871.75
71.0789
1845.92
72.9965
1821.51
70.6542
1797.91
72.0046
1774.25
76.1821
1746.92
82.426
1716.91
86.7835
1687.06
87.2291
1657.72
87.9308
1628.43
90.4406
1595.43
96.3384
1559.74
100.93
1524.64
102.237
1491.36
101.367
1459.88
99.001
1426.2
100.238
1391.63
102.196
1359.05
101.572
1326.19
101.374
1294.08
99.1384
1261.92
97.3076
1228.77
96.6677
1197.85
94.4652
1168.03
93.5554
1137.41
92.7504
1107.06
90.1973
1078.29
87.2172
1050.46
85.2665
1021.94
84.3092
993.895
82.2005
966.12
81.5877
939.122
79.3609
914.973
74.9517
892.039
73.8807
867.713
74.616
842.459
73.1987
819.648
67.9598
798.175
63.8615
775.552
63.4241
755.015
60.9759
736.159
58.8797
718.087
56.0125
701.334
53.7584
683.601
54.1324
664.2
55.3948
644.736
55.2917
626.214
54.7158
609.179
53.0182
592.623
51.6829
576.968
49.082
561.785
47.5825
546.664
47.3941
530.596
48.8225
513.532
49.3408
497.668
45.9355
483.831
42.1088
470.682
40.3182
459.008
37.5085
449.463
33.0697
438.712
34.2328
426.498
35.4723
413.966
36.3245
401.727
35.3682
389.541
33.5159
377.997
32.2203
368.173
30.3654
360.348
27.1987
351.541
28.3632
340.031
32.7249
328.269
33.8643
318.992
29.0779
311.232
25.1013
302.388
26.2382
293.407
25.1955
286.418
21.0184
281.39
16.7756
276.707
15.1213
270.109
18.5008
261.686
21.9881
254.611
19.3666
248.912
17.2735
242.81
19.1365
237.676
18.6677
232.413
19.1948
224.48
23.0053
217.268
21.4934
211.196
19.9248
205.05
19.7731
199.286
19.4473
192.92
19.8759
186.844
17.2366
182.729
11.8085
178.748
11.7379
173.167
15.2922
167.884
15.6536
163.091
15.4561
159.425
13.7211
156.292
11.7616
152.085
11.5769
148.071
10.7297
144.571
8.93672
141.492
8.40775
137.753
11.15
132.416
14.1237
129.114
9.87243
127.447
7.08492
125.817
6.68539
124.094
5.4317
121.769
5.82409
118.708
7.0168
114.073
11.0155
111.254
7.87687
109.647
4.82878
106.508
7.86989
102.445
11.5481
97.7682
13.8037
94.2781
11.5527
91.8216
10.6894
90.5954
8.23313
88.6222
8.98883
86.7261
6.6204
85.5063
3.80715
82.0021
8.59251
79.531
7.21166
77.7716
7.98954
75.472
9.06132
73.5119
8.08376
73.1948
4.38736
73.519
1.25359
71.2366
5.38068
68.379
6.53671
65.4777
5.43557
64.0448
0.392466
64.0773
-1.81136
62.568
2.92411
60.1549
5.63445
57.5728
6.7982
55.5321
4.58595
54.0133
1.86257
53.3491
2.02541
54.3358
0.902549
54.6887
2.45043
54.0304
4.91965
53.2156
4.71095
50.1752
9.0207
47.6619
7.48507
44.4827
8.22826
41.0175
8.02027
40.9034
0.0532872
40.4421
0.811217
38.6514
4.1443
38.3233
2.27331
39.2178
0.0441983
38.5274
3.6955
36.9236
4.35355
36.1716
2.14312
34.5712
3.98669
32.6763
2.75284
32.9631
-0.326604
34.2639
-0.332598
34.3909
1.84387
33.1193
4.35993
31.0799
4.99424
30.2265
3.5769
30.5351
0.734418
30.0177
0.412282
29.7085
0.103871
30.091
-0.280734
30.7614
-0.0775055
31.0503
1.08987
29.2096
5.19051
26.3321
7.06618
24.3314
5.88581
23.3778
3.23115
22.8718
0.281692
22.0911
1.54858
21.173
2.82283
20.3322
1.36065
19.4367
1.60779
20.0853
-2.37704
22.671
-5.98421
25.0018
-4.49166
24.7921
1.22762
22.5034
5.87796
19.5091
5.48108
17.6925
4.24037
18.3262
1.06602
19.9486
-0.666341
19.826
2.56809
17.7023
5.57304
15.5584
5.29229
14.5449
1.61077
13.7928
-0.494703
12.6511
0.641591
13.5976
-3.64099
13.5514
-0.539342
10.8227
6.39404
9.02545
4.23835
9.45173
-0.250459
12.5369
-5.10808
15.3171
-4.6024
15.1023
1.73593
13.0716
4.70469
12.1857
2.09877
14.0215
-1.71216
15.782
-2.20415
14.9376
2.49347
12.2719
6.21664
11.1852
0.82415
11.2926
-1.64087
11.7794
-1.29783
13.2271
-3.98161
12.8871
-0.407085
12.2723
0.580664
14.091
-4.6759
15.2451
-1.37215
13.7848
4.93326
10.89
7.84833
9.30734
5.28993
8.76799
1.9935
7.58591
4.06321
7.08013
2.2903
7.20888
-0.43866
7.12142
-1.05993
6.44617
0.415367
5.7143
1.36765
6.30607
0.0478845
6.92481
0.976167
5.70085
4.41081
5.0579
1.8435
5.25093
-0.604115
4.11481
1.78946
3.28633
0.104509
4.97239
-5.8482
7.0988
-6.13175
6.95171
0.52192
6.43695
2.90952
6.03499
2.67453
5.301
1.81219
3.92609
2.82456
3.55936
0.666829
6.28059
-6.34723
9.1111
-7.22769
9.42012
-0.17409
9.94878
-0.136324
10.2305
-0.226893
8.10347
5.30344
5.67506
6.86189
5.14703
3.45636
4.46488
2.87828
3.13656
3.8886
2.8283
2.14406
2.61313
0.971901
1.76355
2.0883
1.65946
0.807937
1.14148
0.850828
1.12294
0.575246
3.01578
-4.9419
4.68226
-6.37149
5.77207
-3.62099
6.0713
0.016437
5.62754
2.52992
4.71027
3.59202
3.16971
3.63807
1.97993
2.13231
2.70729
-2.99328
1.83315
0.794202
1.20482
1.18262
2.80658
-3.34415
2.37941
1.75392
0.602173
4.4445
0.540495
0.895884
3.28242
-5.95466
5.07781
-3.47084
4.9151
1.69435
3.54664
4.18425
1.69299
5.06707
2.18029
-1.12801
1.61396
-0.0511262
0.268356
2.56143
1.01732
-2.1637
1.41272
-2.32368
2.23863
-5.67584
5.09607
-10.9203
8.04132
-7.83694
8.58391
-1.27696
7.14354
3.36714
5.93026
4.43221
4.24459
6.02651
1.55431
8.64961
0.645547
5.09572
0.935152
2.43476
0.069937
5.01865
1.1396
-0.193617
2.38043
-1.88005
1.2328
1.5254
0.84494
-0.427629
1.83026
-2.9862
4.04403
-6.64457
7.46924
-9.20366
8.17585
-2.10343
7.17318
1.08378
7.10899
-1.48899
6.46456
1.07305
5.44688
3.06317
4.93783
2.45836
3.72889
3.97291
1.47123
6.24094
0.0104376
3.71711
-1.67539
3.6863
-3.23528
3.00691
-1.71562
-4.26027
1.14172
-6.96118
3.27438
-5.76401
5.00281
-4.29105
5.64935
-0.777577
6.1268
-0.807348
6.31126
-0.339873
5.72652
1.99385
5.31378
1.45473
4.85996
1.59299
3.46347
3.97233
1.83325
4.65716
1.16918
2.01998
1.42891
-0.253886
3.84528
-5.6995
5.77575
-4.00331
5.23602
1.98686
4.62571
1.45484
3.74328
2.24712
2.43885
3.02825
1.78331
2.29017
2.33478
-0.458347
2.90995
-0.219012
3.34514
0.70093
4.27508
-2.26756
5.47605
-2.21922
5.05578
1.97662
1.84086
5.45535
-0.50237
3.74801
1.00843
-2.78911
2.56905
-2.16376
2.00428
1.63708
0.593252
2.98858
-0.835694
3.81164
0.344418
-3.63076
1.35367
-4.00382
1.29385
-0.00731141
2.70325
-2.947
2.83781
-0.15587
2.01509
1.94042
2.60946
-0.192266
3.957
-1.30693
3.26966
3.30435
0.358879
7.6266
-2.45608
6.78022
-2.87155
0.988653
-1.43559
-3.83149
-2.28401
1.45981
-4.29294
3.97665
-3.69032
-1.63604
-1.15963
-6.8608
1.10754
-7.62406
3.81387
-6.72166
6.05839
-4.01697
5.77163
1.78847
3.17819
6.61064
0.263302
7.64909
-0.83744
5.05529
0.117428
-0.868201
1.30272
-3.52467
1.44749
-1.41008
1.69568
-1.0496
1.70678
-0.00688299
0.7996
0.908076
-0.076982
0.621987
0.43371
-1.40725
0.391917
-0.0292179
-0.995998
3.60311
-2.17256
3.55682
-2.05039
1.69813
-0.373263
-0.746551
-0.271977
2.28262
-1.57641
5.45817
-2.31314
2.86732
-2.32042
0.175138
-1.29895
-2.65769
-2.3887
1.39785
-2.53103
-1.3196
-0.607889
-5.77566
-0.509446
-1.678
1.19967
-5.18429
3.12161
-4.17409
3.6583
-2.3066
3.72467
-0.601842
3.49487
0.222611
3.13937
-0.0222335
2.6381
0.919892
2.38323
0.15611
1.96994
0.321768
1.5835
0.194982
2.44273
-2.40335
3.18306
-1.43046
2.44872
1.55212
1.6497
0.832836
1.20146
0.4463
2.16324
-2.23761
3.50181
-2.37268
4.42871
-1.25008
4.83948
0.0427166
4.8472
1.37372
3.98313
3.48861
2.12209
5.11699
1.88764
1.16361
1.61233
0.740738
-0.67791
5.05388
-0.812788
1.01746
0.731094
-2.50985
0.581132
1.6512
0.640332
0.251802
0.334745
-0.557343
-0.619079
1.13898
0.023947
-1.98962
1.67571
-4.24775
2.78668
-3.78778
2.21471
0.624603
0.777216
4.17029
1.45567
-0.911292
2.12828
-0.228804
0.596465
4.96101
-1.37943
5.35538
-3.78923
6.27424
-5.03893
4.03898
-4.38046
-0.201186
-4.02802
-0.664306
-0.808112
-7.05854
3.74091
-9.73997
4.56903
-2.80876
3.45472
1.08987
1.12648
4.87262
-1.47253
6.14095
-2.9318
2.09679
-3.79472
-0.402718
-4.0386
0.305477
-3.68921
-1.34943
-1.54167
-7.00731
1.82223
-7.85893
3.48504
-2.84293
3.40465
0.808828
2.59023
3.14462
2.0571
2.85955
1.1854
2.92469
-1.37498
5.65047
-3.18901
3.15162
-3.14337
-0.911191
-0.690699
-6.33619
2.17594
-5.31647
2.88397
-0.154003
1.99606
2.02962
0.731618
4.43357
1.2727
0.265159
1.55628
-0.310313
0.420367
2.39673
-2.09006
3.9926
-3.77417
1.65491
-8.51541
77.8422
-342.875
158.07
-337.414
238.568
-330.221
316.82
-325.702
399.267
-326.197
479.447
-329.125
562.528
-317.875
640.003
-311.776
717.783
-313.366
796.376
-314.139
871.708
-307.084
944.038
-302.217
1014.97
-298.08
1087.99
-295.173
1155.92
-289.776
1225.77
-279.006
1288.89
-270.793
1353.61
-264.916
1415.02
-255.262
1475.59
-237.246
1529.41
-228.853
1583.81
-220.853
1635.15
-210.903
1684.54
-197.855
1727.43
-181.795
1765.83
-162.977
1800.06
-145.743
1830.44
-126.198
1858.22
-113.26
1884.22
-105.86
1907.51
-94.303
1927.44
-83.9042
1944.32
-76.3632
1958.52
-65.4974
1969.37
-50.2273
1977.39
-34.7388
1981.15
-23.246
1981
-5.93162
1977.57
3.16259
1973.51
11.1734
1966.06
28.3684
1956.58
40.3476
1943.84
52.0733
1927.57
63.9935
1909.54
72.4557
1890.84
81.8453
1868.5
93.3935
1842.73
98.4003
1816.73
96.528
1791.13
97.3106
1766.09
101.039
1738.77
109.594
1709.15
116.24
1678.94
117.268
1648.81
117.872
1618.5
120.575
1585.44
129.268
1550.63
135.477
1516.26
136.377
1483.26
134.13
1450.9
131.135
1416.96
134.257
1383.23
136.306
1351
133.997
1318.06
134.504
1285.99
131.388
1254.12
129.372
1221.63
129.33
1191.05
125.136
1161.54
123.204
1131.04
123.379
1100.53
120.791
1072.14
115.691
1044.23
113.094
1015.28
113.261
986.959
110.565
959.684
108.704
933.565
105.427
909.187
99.2236
885.79
97.2178
861.545
98.8548
836.986
97.7017
814.604
90.2941
792.961
85.5416
770.313
85.8279
749.439
81.3738
730.578
77.4621
712.617
73.7577
695.395
70.7685
677.334
71.994
658.348
74.366
639.619
74.1276
621.225
73.2246
603.794
70.3342
587.107
68.4476
572.022
64.2091
557.541
62.2192
542.451
62.6402
526.19
65.1805
509.17
66.2266
494.322
60.8632
480.985
55.41
468.193
53.1336
456.317
49.3647
445.992
43.4129
435.195
45.0161
423.037
47.6942
410.168
49.1928
398.26
47.0161
386.812
44.9545
375.223
43.7191
365.425
40.0733
356.937
35.6171
347.191
37.854
336.797
42.9924
326.833
43.8235
317.532
38.4568
309.311
33.4857
301.153
34.5232
293.116
33.4253
285.241
28.9439
278.226
23.7447
271.857
21.4789
264.683
25.5344
257.512
28.8339
251.526
25.2802
246.575
22.2905
240.711
24.9836
234.48
24.9464
228.241
25.285
221.274
29.9885
215.378
27.2515
209.654
25.6768
203.687
25.8249
198.519
24.6832
192.397
26.2596
186.216
23.5742
181.166
17.1263
176.808
16.2536
172.075
20.0609
167.23
20.5091
162.624
20.0591
158.816
17.3879
155.719
14.952
151.355
15.9912
147.139
14.9503
143.977
12.1331
141.698
10.7224
138.703
14.1627
133.994
19.0057
130.194
13.8409
127.602
9.67159
124.866
9.50715
121.876
8.39059
119.216
8.47078
115.901
10.3747
111.739
15.3549
108.706
11.0502
106.206
7.48422
102.52
11.665
98.2565
15.8002
94.9378
17.1247
92.5757
13.8897
90.3181
13.0589
89.4252
9.23854
88.6778
9.89714
87.1903
8.22214
85.5847
5.44494
82.0764
12.2059
79.5376
9.89606
78.2146
9.22745
76.9224
10.3767
76.293
8.68579
76.3541
4.33585
75.8227
1.69722
73.5219
7.67882
71.1296
8.9424
68.2641
8.27003
64.5302
4.27137
61.4062
1.29576
59.5238
4.89194
57.9099
7.23992
56.0341
8.65297
54.5788
6.00637
52.7071
3.7203
51.4067
3.24438
51.872
0.351763
52.207
2.08419
51.9434
5.19363
50.9868
5.67457
48.7086
11.3835
47.0904
9.27934
44.3661
10.934
41.7729
10.6223
41.118
0.765674
39.7092
2.17362
38.3657
5.49333
37.8871
2.8357
37.8416
0.297436
37.2511
4.52841
36.437
5.64332
35.6864
3.12078
34.1691
5.67087
32.9828
4.18032
33.1613
-0.555214
33.3207
-0.619932
33.2024
2.04691
32.9454
4.64711
32.6663
5.48008
32.5114
3.94965
32.0443
1.53046
30.613
1.96458
29.5318
1.39364
28.7685
0.623218
28.4328
0.282773
29.2347
0.301084
29.2791
5.06377
27.6497
8.6149
25.0461
8.35177
23.4516
4.78602
22.6667
1.03502
21.4945
2.68875
20.3581
4.23416
19.7843
2.05446