/*--------------------------------*- C++ -*----------------------------------*\
| =========                 |                                                 |
| \\      /  F ield         | OpenFOAM: The Open Source CFD Toolbox           |
|  \\    /   O peration     | Version:  v2012                                 |
|   \\  /    A nd           | Website:  www.openfoam.com                      |
|    \\/     M anipulation  |                                                 |
\*---------------------------------------------------------------------------*/
FoamFile
{
    version     2.0;
    format      ascii;
    class       volScalarField;
    location    "200";
    object      T;
}
// * * * * * * * * * * * * * * * * * * * * * * * * * * * * * * * * * * * * * //

dimensions      [0 0 0 1 0 0 0];


internalField   nonuniform List<scalar> 
65536
(
297.48
297.489
297.49
297.504
297.502
297.513
297.535
297.562
297.571
297.599
297.609
297.594
297.525
297.629
297.718
297.778
297.806
297.803
297.726
297.839
297.924
297.972
297.956
298.035
298.072
297.998
298.076
298.037
298.095
298.1
298.133
298.188
298.233
298.288
298.334
298.383
298.435
298.487
298.541
298.594
298.648
298.7
298.748
298.795
298.839
298.88
298.918
298.952
298.983
299.011
299.034
299.059
299.078
299.096
299.114
299.13
299.144
299.159
299.166
299.175
299.181
299.186
299.189
299.191
299.194
299.197
299.2
299.201
299.203
299.206
299.207
299.206
299.204
299.2
299.197
299.193
299.188
299.184
299.181
299.177
299.174
299.168
299.165
299.164
299.162
299.163
299.167
299.171
299.175
299.178
299.181
299.184
299.187
299.188
299.191
299.194
299.197
299.199
299.2
299.199
299.197
299.195
299.195
299.193
299.197
299.2
299.205
299.211
299.213
299.217
299.219
299.219
299.217
299.213
299.21
299.205
299.198
299.191
299.188
299.188
299.192
299.199
299.208
299.216
299.22
299.226
299.229
299.23
299.229
299.227
299.226
299.224
299.224
299.223
299.221
299.221
299.221
299.221
299.222
299.222
299.22
299.217
299.212
299.21
299.21
299.21
299.212
299.214
299.216
299.217
299.22
299.221
299.222
299.221
299.221
299.22
299.219
299.218
299.22
299.222
299.226
299.23
299.232
299.235
299.235
299.234
299.232
299.231
299.227
299.224
299.224
299.225
299.226
299.227
299.227
299.226
299.225
299.224
299.225
299.227
299.231
299.235
299.24
299.243
299.246
299.25
299.254
299.257
299.258
299.257
299.254
299.251
299.249
299.249
299.249
299.247
299.244
299.242
299.24
299.238
299.237
299.234
299.232
299.23
299.226
299.223
299.22
299.216
299.213
299.208
299.204
299.203
299.203
299.204
299.205
299.208
299.211
299.214
299.216
299.218
299.22
299.22
299.225
299.23
299.236
299.242
299.246
299.249
299.25
299.25
299.248
299.249
299.245
299.241
299.237
299.233
299.229
299.227
299.23
299.234
299.24
299.243
299.248
299.25
299.251
299.249
299.25
299.25
299.251
299.251
299.249
299.247
299.244
299.24
299.238
299.235
299.233
299.234
299.234
299.237
299.245
299.25
299.257
299.265
299.272
299.276
299.278
299.278
299.279
299.277
299.273
299.27
299.266
299.261
299.258
299.256
299.256
299.256
299.259
299.26
299.264
299.266
299.268
299.267
299.265
299.264
299.262
299.261
299.262
299.263
299.264
299.268
299.271
299.274
299.276
299.277
299.278
299.277
299.275
299.274
299.271
299.272
299.27
299.27
299.266
299.263
299.258
299.252
299.246
299.24
299.236
299.233
299.229
299.225
299.225
299.226
299.225
299.226
299.229
299.232
299.234
299.235
299.234
299.233
299.233
299.231
299.232
299.234
299.239
299.245
299.251
299.255
299.258
299.259
299.259
299.257
299.252
299.248
299.242
299.236
299.232
299.229
299.227
299.226
299.227
299.231
299.234
299.237
299.239
299.242
299.244
299.248
299.252
299.255
299.257
299.259
299.259
299.262
299.265
299.267
299.271
299.275
299.277
299.28
299.28
299.281
299.279
299.278
299.276
299.276
299.277
299.275
299.274
299.27
299.266
299.259
299.252
299.245
299.238
299.235
299.236
299.238
299.239
299.239
299.24
299.241
299.244
299.246
299.25
299.256
299.259
299.261
299.261
299.258
299.254
299.249
299.244
299.238
299.234
299.232
299.23
299.228
299.228
299.229
299.227
299.228
299.229
299.227
299.225
299.225
299.226
299.23
299.234
299.238
299.239
299.241
299.245
299.246
299.248
299.252
299.258
299.261
299.266
299.272
299.276
299.279
299.277
299.275
299.268
299.261
299.253
299.244
299.24
299.235
299.232
299.232
299.231
299.232
299.23
299.229
299.226
299.224
299.223
299.22
299.221
299.228
299.232
299.239
299.244
299.248
299.251
299.253
299.256
299.257
299.259
299.26
299.261
299.259
299.258
299.258
299.255
299.253
299.254
299.258
299.258
299.261
299.262
299.264
299.267
299.269
299.27
299.271
299.269
299.267
299.263
299.258
299.251
299.245
299.238
299.234
299.231
299.23
299.233
299.234
299.238
299.242
299.242
299.244
299.244
299.242
299.238
299.239
299.24
299.242
299.244
299.246
299.25
299.251
299.256
299.26
299.263
299.265
299.267
299.266
299.267
299.267
299.266
299.264
299.261
299.257
299.251
299.248
296.882
296.88
296.883
296.881
296.883
296.929
296.922
296.968
296.984
297.001
297.014
297.042
297.068
297.112
297.165
297.191
297.258
297.273
297.319
297.348
297.413
297.44
297.481
297.528
297.579
297.624
297.651
297.709
297.736
297.795
297.849
297.904
297.969
298.032
298.098
298.161
298.222
298.287
298.345
298.401
298.459
298.515
298.572
298.62
298.671
298.715
298.754
298.795
298.826
298.857
298.885
298.902
298.927
298.945
298.963
298.979
298.993
298.996
299.019
299.027
299.037
299.037
299.038
299.046
299.047
299.049
299.048
299.057
299.061
299.062
299.062
299.061
299.062
299.063
299.059
299.05
299.05
299.043
299.037
299.034
299.024
299.027
299.017
299.009
299.016
299.019
299.024
299.032
299.036
299.041
299.043
299.044
299.044
299.05
299.05
299.054
299.059
299.059
299.059
299.06
299.056
299.048
299.041
299.045
299.045
299.059
299.066
299.069
299.079
299.076
299.078
299.078
299.078
299.075
299.069
299.059
299.053
299.042
299.032
299.033
299.046
299.058
299.066
299.073
299.084
299.086
299.09
299.089
299.089
299.09
299.085
299.089
299.082
299.083
299.083
299.081
299.081
299.08
299.083
299.082
299.083
299.075
299.073
299.065
299.059
299.065
299.068
299.075
299.078
299.079
299.077
299.074
299.072
299.078
299.078
299.078
299.07
299.07
299.068
299.077
299.085
299.086
299.094
299.092
299.095
299.093
299.089
299.078
299.08
299.082
299.086
299.081
299.082
299.086
299.086
299.086
299.079
299.074
299.079
299.085
299.091
299.095
299.097
299.102
299.106
299.111
299.112
299.118
299.119
299.115
299.109
299.105
299.107
299.109
299.107
299.106
299.107
299.105
299.097
299.092
299.088
299.09
299.089
299.087
299.088
299.085
299.081
299.075
299.07
299.064
299.065
299.063
299.06
299.062
299.06
299.06
299.069
299.073
299.078
299.075
299.068
299.075
299.076
299.083
299.094
299.1
299.101
299.105
299.11
299.107
299.109
299.095
299.101
299.099
299.091
299.09
299.085
299.082
299.082
299.089
299.091
299.104
299.108
299.109
299.106
299.11
299.1
299.108
299.111
299.109
299.11
299.11
299.105
299.095
299.086
299.086
299.087
299.079
299.086
299.089
299.088
299.104
299.117
299.121
299.128
299.135
299.138
299.137
299.128
299.128
299.13
299.129
299.121
299.12
299.113
299.109
299.1
299.103
299.106
299.117
299.117
299.123
299.122
299.123
299.126
299.12
299.119
299.119
299.117
299.121
299.125
299.126
299.129
299.134
299.137
299.138
299.134
299.135
299.132
299.13
299.134
299.129
299.13
299.125
299.128
299.12
299.116
299.105
299.096
299.096
299.092
299.081
299.082
299.084
299.075
299.069
299.077
299.081
299.079
299.088
299.093
299.095
299.094
299.089
299.078
299.084
299.085
299.084
299.094
299.105
299.11
299.117
299.122
299.123
299.121
299.116
299.114
299.106
299.099
299.093
299.089
299.087
299.085
299.087
299.093
299.09
299.093
299.095
299.097
299.098
299.101
299.104
299.106
299.108
299.114
299.114
299.118
299.116
299.119
299.127
299.131
299.132
299.137
299.138
299.141
299.14
299.14
299.138
299.136
299.134
299.133
299.137
299.134
299.133
299.126
299.121
299.11
299.099
299.091
299.092
299.093
299.094
299.095
299.095
299.094
299.094
299.089
299.098
299.107
299.113
299.119
299.122
299.122
299.119
299.115
299.109
299.099
299.1
299.097
299.09
299.089
299.09
299.083
299.076
299.085
299.087
299.088
299.086
299.081
299.075
299.08
299.086
299.095
299.095
299.101
299.1
299.094
299.103
299.109
299.108
299.103
299.116
299.124
299.131
299.135
299.133
299.135
299.129
299.126
299.121
299.109
299.102
299.085
299.088
299.086
299.081
299.09
299.088
299.093
299.087
299.084
299.078
299.069
299.073
299.076
299.072
299.084
299.091
299.101
299.106
299.111
299.11
299.104
299.113
299.12
299.122
299.119
299.119
299.111
299.103
299.106
299.113
299.111
299.104
299.112
299.114
299.12
299.121
299.125
299.13
299.132
299.13
299.133
299.127
299.121
299.114
299.109
299.104
299.099
299.089
299.088
299.086
299.081
299.092
299.097
299.096
299.103
299.103
299.101
299.098
299.099
299.09
299.098
299.101
299.104
299.106
299.102
299.114
299.117
299.121
299.123
299.124
299.124
299.13
299.128
299.129
299.126
299.125
299.119
299.112
299.105
299.096
296.157
296.121
296.12
296.143
296.166
296.173
296.207
296.204
296.283
296.278
296.346
296.34
296.409
296.396
296.453
296.52
296.57
296.63
296.67
296.694
296.743
296.826
296.859
296.931
296.994
297.096
297.125
297.217
297.264
297.32
297.386
297.457
297.539
297.606
297.694
297.76
297.841
297.903
297.976
298.05
298.107
298.168
298.231
298.296
298.343
298.4
298.444
298.483
298.523
298.548
298.573
298.603
298.616
298.639
298.66
298.683
298.697
298.713
298.714
298.737
298.746
298.759
298.762
298.762
298.769
298.769
298.774
298.773
298.779
298.784
298.785
298.782
298.778
298.773
298.771
298.769
298.751
298.752
298.754
298.747
298.747
298.726
298.727
298.72
298.716
298.725
298.731
298.74
298.749
298.752
298.758
298.76
298.761
298.754
298.761
298.765
298.768
298.778
298.78
298.777
298.769
298.762
298.753
298.752
298.758
298.766
298.779
298.789
298.783
298.795
298.795
298.792
298.784
298.778
298.776
298.773
298.756
298.742
298.723
298.729
298.748
298.769
298.784
298.795
298.793
298.803
298.807
298.814
298.812
298.805
298.804
298.794
298.807
298.805
298.801
298.796
298.799
298.803
298.806
298.807
298.797
298.791
298.782
298.777
298.775
298.778
298.785
298.784
298.788
298.786
298.793
298.797
298.797
298.797
298.797
298.791
298.789
298.782
298.781
298.788
298.796
298.807
298.805
298.814
298.813
298.811
298.803
298.803
298.79
298.785
298.775
298.783
298.789
298.791
298.797
298.789
298.787
298.77
298.782
298.799
298.803
298.81
298.814
298.813
298.812
298.818
298.829
298.831
298.834
298.834
298.823
298.807
298.809
298.81
298.817
298.823
298.812
298.801
298.801
298.804
298.802
298.802
298.802
298.794
298.788
298.789
298.789
298.791
298.785
298.783
298.774
298.777
298.778
298.778
298.772
298.757
298.771
298.786
298.79
298.788
298.786
298.781
298.788
298.8
298.805
298.81
298.816
298.817
298.813
298.816
298.806
298.814
298.807
298.807
298.81
298.799
298.789
298.778
298.795
298.802
298.809
298.815
298.826
298.83
298.826
298.807
298.811
298.814
298.821
298.831
298.828
298.82
298.817
298.809
298.793
298.792
298.789
298.795
298.789
298.794
298.806
298.809
298.817
298.838
298.852
298.851
298.85
298.845
298.848
298.842
298.84
298.832
298.834
298.819
298.815
298.808
298.809
298.813
298.819
298.823
298.839
298.84
298.843
298.837
298.822
298.826
298.822
298.828
298.833
298.829
298.828
298.837
298.847
298.852
298.851
298.852
298.854
298.848
298.848
298.844
298.837
298.843
298.843
298.849
298.839
298.843
298.829
298.82
298.802
298.802
298.798
298.797
298.79
298.782
298.789
298.79
298.788
298.791
298.796
298.799
298.811
298.811
298.801
298.792
298.794
298.793
298.791
298.795
298.798
298.812
298.827
298.831
298.829
298.83
298.828
298.83
298.819
298.817
298.813
298.81
298.807
298.804
298.802
298.797
298.791
298.808
298.809
298.81
298.81
298.809
298.811
298.817
298.822
298.833
298.832
298.835
298.829
298.831
298.837
298.839
298.845
298.858
298.859
298.863
298.864
298.86
298.855
298.851
298.848
298.846
298.849
298.848
298.85
298.844
298.841
298.833
298.824
298.809
298.791
298.792
298.801
298.804
298.806
298.806
298.811
298.805
298.805
298.809
298.82
298.828
298.833
298.839
298.837
298.84
298.832
298.823
298.818
298.799
298.792
298.804
298.803
298.797
298.799
298.799
298.792
298.801
298.802
298.796
298.782
298.773
298.779
298.793
298.794
298.807
298.803
298.804
298.814
298.809
298.808
298.814
298.826
298.827
298.835
298.842
298.851
298.86
298.855
298.856
298.844
298.825
298.815
298.796
298.789
298.785
298.793
298.804
298.8
298.811
298.807
298.812
298.805
298.796
298.786
298.78
298.774
298.782
298.792
298.81
298.819
298.825
298.82
298.817
298.818
298.827
298.834
298.837
298.84
298.83
298.827
298.817
298.815
298.808
298.814
298.825
298.826
298.832
298.828
298.833
298.834
298.838
298.842
298.847
298.839
298.843
298.837
298.833
298.823
298.811
298.797
298.794
298.792
298.795
298.806
298.805
298.812
298.82
298.817
298.823
298.82
298.813
298.799
298.803
298.805
298.814
298.82
298.814
298.814
298.81
298.824
298.835
298.838
298.841
298.847
298.842
298.845
298.844
298.842
298.838
298.841
298.83
298.814
298.797
295.28
295.26
295.251
295.224
295.284
295.254
295.348
295.346
295.383
295.422
295.457
295.516
295.54
295.583
295.604
295.724
295.719
295.819
295.85
295.931
295.976
296.064
296.106
296.191
296.285
296.403
296.486
296.565
296.609
296.653
296.75
296.852
296.958
297.055
297.136
297.248
297.305
297.41
297.467
297.54
297.626
297.71
297.774
297.843
297.913
297.966
298.026
298.068
298.105
298.141
298.172
298.184
298.211
298.22
298.259
298.288
298.302
298.277
298.33
298.348
298.367
298.362
298.361
298.377
298.382
298.383
298.363
298.391
298.404
298.409
298.403
298.39
298.403
298.407
298.4
298.385
298.381
298.377
298.369
298.367
298.349
298.351
298.325
298.291
298.32
298.315
298.352
298.37
298.372
298.378
298.383
298.387
298.382
298.383
298.389
298.395
298.406
298.404
298.404
298.399
298.394
298.37
298.326
298.352
298.335
298.39
298.412
298.41
298.408
298.409
298.413
298.416
298.413
298.391
298.39
298.384
298.379
298.352
298.282
298.295
298.361
298.393
298.407
298.406
298.412
298.429
298.444
298.435
298.431
298.423
298.416
298.423
298.419
298.428
298.43
298.431
298.422
298.419
298.429
298.432
298.434
298.412
298.386
298.381
298.35
298.389
298.401
298.414
298.412
298.419
298.415
298.398
298.378
298.403
298.413
298.41
298.386
298.381
298.355
298.397
298.416
298.418
298.43
298.433
298.443
298.44
298.423
298.38
298.39
298.381
298.394
298.395
298.388
298.412
298.419
298.424
298.4
298.34
298.401
298.417
298.432
298.432
298.425
298.416
298.428
298.426
298.438
298.461
298.467
298.457
298.434
298.385
298.42
298.437
298.44
298.431
298.436
298.434
298.427
298.422
298.423
298.422
298.418
298.418
298.418
298.417
298.415
298.409
298.409
298.401
298.404
298.399
298.401
298.399
298.382
298.332
298.393
298.412
298.419
298.41
298.365
298.385
298.368
298.403
298.428
298.426
298.402
298.421
298.435
298.427
298.423
298.386
298.422
298.421
298.399
298.411
298.401
298.352
298.401
298.416
298.395
298.442
298.455
298.45
298.435
298.428
298.385
298.432
298.455
298.447
298.436
298.451
298.445
298.417
298.365
298.402
298.406
298.367
298.391
298.373
298.37
298.411
298.429
298.446
298.459
298.475
298.475
298.46
298.418
298.444
298.454
298.46
298.436
298.434
298.427
298.418
298.374
298.404
298.414
298.437
298.441
298.455
298.45
298.448
298.445
298.436
298.439
298.436
298.435
298.439
298.439
298.449
298.456
298.47
298.479
298.478
298.47
298.465
298.46
298.454
298.452
298.461
298.467
298.461
298.47
298.452
298.453
298.426
298.374
298.415
298.415
298.38
298.401
298.4
298.386
298.355
298.395
298.4
298.374
298.42
298.428
298.429
298.423
298.402
298.352
298.39
298.395
298.371
298.414
298.435
298.442
298.453
298.459
298.448
298.458
298.45
298.443
298.44
298.43
298.412
298.417
298.423
298.414
298.403
298.414
298.421
298.436
298.437
298.431
298.415
298.398
298.418
298.435
298.436
298.446
298.441
298.442
298.436
298.446
298.462
298.466
298.465
298.48
298.479
298.476
298.478
298.48
298.47
298.449
298.434
298.452
298.475
298.479
298.477
298.464
298.46
298.449
298.422
298.364
298.406
298.418
298.427
298.425
298.413
298.408
298.402
298.369
298.4
298.431
298.45
298.461
298.466
298.474
298.465
298.46
298.45
298.423
298.419
298.416
298.411
298.424
298.426
298.406
298.368
298.397
298.417
298.43
298.426
298.399
298.345
298.379
298.402
298.425
298.42
298.417
298.42
298.394
298.424
298.427
298.424
298.395
298.426
298.435
298.461
298.474
298.473
298.478
298.463
298.461
298.456
298.437
298.412
298.352
298.397
298.401
298.387
298.415
298.421
298.429
298.424
298.421
298.4
298.357
298.381
298.371
298.345
298.396
298.416
298.432
298.439
298.445
298.43
298.388
298.44
298.457
298.464
298.458
298.458
298.43
298.385
298.413
298.426
298.423
298.401
298.431
298.436
298.445
298.443
298.445
298.459
298.469
298.464
298.46
298.459
298.454
298.429
298.435
298.431
298.417
298.396
298.408
298.408
298.382
298.418
298.429
298.427
298.433
298.437
298.441
298.428
298.408
298.377
298.428
298.45
298.448
298.436
298.396
298.428
298.452
298.463
298.467
298.464
298.458
298.468
298.472
298.466
298.46
298.458
298.45
298.446
298.424
298.366
294.169
294.208
294.146
294.125
294.186
294.275
294.246
294.283
294.277
294.404
294.374
294.505
294.468
294.503
294.625
294.709
294.784
294.791
294.935
294.942
295.046
295.093
295.245
295.307
295.452
295.52
295.706
295.778
295.844
295.789
295.963
296.107
296.22
296.367
296.456
296.569
296.683
296.752
296.869
296.951
297.031
297.114
297.21
297.292
297.379
297.441
297.505
297.566
297.612
297.647
297.668
297.699
297.701
297.689
297.769
297.822
297.838
297.783
297.838
297.9
297.926
297.926
297.901
297.938
297.96
297.953
297.906
297.954
297.974
297.976
297.964
297.915
297.95
297.961
297.955
297.937
297.889
297.915
297.928
297.919
297.904
297.864
297.881
297.83
297.866
297.821
297.898
297.924
297.936
297.936
297.94
297.933
297.914
297.888
297.931
297.944
297.947
297.961
297.974
297.976
297.96
297.943
297.875
297.916
297.885
297.948
297.967
297.968
297.919
297.961
297.973
297.97
297.946
297.892
297.933
297.936
297.903
297.899
297.843
297.857
297.926
297.959
297.972
297.97
297.924
297.978
297.991
298.007
297.999
297.986
297.962
297.931
297.981
297.995
297.995
297.979
297.982
297.962
297.996
298.006
297.982
297.948
297.892
297.927
297.892
297.947
297.957
297.956
297.958
297.942
297.961
297.969
297.921
297.974
297.984
297.963
297.917
297.936
297.901
297.953
297.971
297.976
297.968
297.982
297.993
297.998
297.977
297.907
297.933
297.888
297.88
297.914
297.886
297.944
297.974
297.959
297.961
297.904
297.949
297.981
297.976
297.984
297.975
297.925
297.953
297.932
297.991
298.011
298.024
298.03
298.006
297.945
297.974
297.97
297.984
297.99
297.97
297.932
297.931
297.955
297.951
297.966
297.968
297.942
297.924
297.955
297.949
297.963
297.95
297.951
297.932
297.945
297.941
297.955
297.949
297.896
297.947
297.972
297.983
297.973
297.912
297.948
297.918
297.966
297.977
297.966
297.905
297.962
297.964
297.975
297.953
297.908
297.967
297.972
297.926
297.967
297.962
297.921
297.978
297.987
297.949
298.001
298.02
298.016
297.99
297.937
297.91
297.984
298.005
298.008
297.96
298
298.007
297.987
297.914
297.943
297.944
297.897
297.93
297.878
297.883
297.954
297.938
298.003
298.027
298.03
298.025
298.003
297.926
297.974
297.994
297.983
297.979
297.938
297.945
297.951
297.907
297.957
297.938
297.973
298.001
298.002
298.005
297.992
297.948
297.967
297.956
297.972
297.981
297.973
297.939
297.991
298.018
298.03
298.034
298.03
298.023
298.012
298.007
297.984
297.947
297.996
298.008
298.014
298.001
298.012
298.002
297.991
297.933
297.986
297.979
297.925
297.946
297.913
297.936
297.881
297.937
297.956
297.915
297.969
297.994
297.99
297.965
297.916
297.874
297.95
297.955
297.905
297.943
297.97
297.987
298.008
297.997
297.955
297.994
297.998
297.952
297.976
297.968
297.933
297.967
297.974
297.961
297.912
297.912
297.977
297.985
297.984
297.977
297.962
297.898
297.959
297.962
297.99
297.997
298.003
297.989
297.957
297.99
298
298.012
298.023
298.029
298.042
298.042
298.037
298.025
298.016
297.997
297.941
298.002
298.018
298.026
298.013
297.994
298.01
298.01
297.982
297.915
297.938
297.961
297.961
297.963
297.931
297.968
297.964
297.902
297.924
297.981
297.995
297.988
298.014
298.019
298.025
298.013
297.992
297.972
297.916
297.924
297.954
297.969
297.975
297.964
297.888
297.91
297.978
297.994
297.98
297.959
297.894
297.898
297.947
297.936
297.964
297.932
297.964
297.926
297.973
297.945
297.968
297.914
297.967
297.953
298.005
298.023
298.018
298.018
298.025
298.008
297.977
297.971
297.921
297.874
297.914
297.941
297.906
297.957
297.983
297.988
297.994
297.983
297.964
297.899
297.931
297.88
297.867
297.937
297.976
297.993
298.001
297.989
297.977
297.931
297.997
298.02
298.016
298.013
298.001
297.992
297.922
297.958
297.93
297.963
297.927
297.983
297.994
297.968
297.981
297.953
297.999
298.015
298.014
297.969
298.007
297.997
297.948
297.985
297.97
297.926
297.894
297.938
297.946
297.905
297.97
297.987
297.981
297.957
297.995
297.999
297.978
297.914
297.899
297.972
298.001
298.015
297.99
297.928
297.933
297.99
298.007
298.005
297.993
298.008
298.011
298.012
298.021
298.018
298.006
298.009
298.014
297.997
297.931
293.105
293.029
292.886
292.863
293.008
293.137
293.097
293.062
293.175
293.132
293.091
293.3
293.415
293.312
293.505
293.548
293.706
293.777
293.82
293.899
293.989
294.09
294.153
294.233
294.432
294.633
294.735
294.898
294.953
294.905
295.046
295.272
295.421
295.517
295.695
295.79
295.917
296.018
296.113
296.193
296.323
296.44
296.563
296.652
296.742
296.846
296.905
296.967
297.03
297.07
297.086
297.097
297.163
297.158
297.246
297.314
297.364
297.379
297.335
297.404
297.431
297.412
297.446
297.47
297.479
297.486
297.492
297.49
297.497
297.5
297.487
297.444
297.473
297.485
297.475
297.429
297.358
297.409
297.408
297.413
297.358
297.315
297.371
297.416
297.424
297.367
297.41
297.427
297.405
297.403
297.439
297.442
297.386
297.375
297.438
297.438
297.458
297.468
297.47
297.474
297.471
297.446
297.47
297.46
297.49
297.497
297.506
297.482
297.411
297.446
297.446
297.466
297.459
297.396
297.42
297.425
297.378
297.444
297.473
297.468
297.474
297.473
297.476
297.452
297.42
297.483
297.514
297.504
297.494
297.467
297.425
297.401
297.464
297.504
297.519
297.51
297.51
297.512
297.522
297.521
297.51
297.431
297.409
297.465
297.491
297.48
297.441
297.469
297.45
297.429
297.485
297.477
297.494
297.49
297.497
297.487
297.469
297.474
297.484
297.484
297.467
297.439
297.433
297.449
297.51
297.525
297.521
297.513
297.476
297.411
297.366
297.425
297.397
297.454
297.476
297.455
297.506
297.53
297.503
297.499
297.471
297.484
297.472
297.443
297.477
297.434
297.466
297.518
297.543
297.545
297.535
297.518
297.485
297.452
297.477
297.456
297.471
297.4
297.398
297.45
297.456
297.488
297.487
297.471
297.421
297.445
297.417
297.452
297.434
297.452
297.425
297.445
297.417
297.474
297.483
297.498
297.483
297.461
297.49
297.519
297.524
297.494
297.49
297.466
297.503
297.491
297.433
297.468
297.447
297.477
297.463
297.503
297.516
297.506
297.487
297.494
297.505
297.524
297.521
297.535
297.544
297.55
297.549
297.521
297.461
297.429
297.49
297.492
297.529
297.524
297.495
297.535
297.539
297.515
297.513
297.453
297.498
297.507
297.499
297.444
297.496
297.497
297.446
297.49
297.496
297.534
297.546
297.537
297.522
297.446
297.484
297.486
297.43
297.402
297.414
297.485
297.504
297.483
297.463
297.468
297.462
297.491
297.463
297.468
297.421
297.43
297.411
297.439
297.459
297.465
297.414
297.471
297.479
297.516
297.532
297.52
297.492
297.468
297.482
297.443
297.429
297.494
297.5
297.476
297.494
297.463
297.502
297.501
297.538
297.534
297.533
297.507
297.482
297.419
297.442
297.486
297.452
297.497
297.517
297.515
297.495
297.495
297.478
297.445
297.492
297.474
297.488
297.485
297.44
297.478
297.447
297.502
297.514
297.466
297.511
297.503
297.445
297.483
297.488
297.457
297.476
297.498
297.494
297.434
297.407
297.48
297.501
297.493
297.478
297.446
297.407
297.444
297.413
297.447
297.478
297.465
297.479
297.468
297.486
297.505
297.487
297.479
297.528
297.527
297.508
297.513
297.535
297.521
297.472
297.447
297.481
297.52
297.541
297.539
297.509
297.525
297.543
297.53
297.505
297.461
297.477
297.459
297.483
297.446
297.456
297.473
297.5
297.482
297.509
297.5
297.452
297.506
297.528
297.535
297.534
297.509
297.446
297.381
297.371
297.409
297.479
297.496
297.492
297.49
297.436
297.496
297.525
297.523
297.497
297.483
297.435
297.449
297.42
297.481
297.457
297.52
297.532
297.518
297.47
297.503
297.515
297.5
297.481
297.514
297.521
297.473
297.505
297.487
297.505
297.46
297.488
297.444
297.483
297.427
297.466
297.474
297.475
297.463
297.464
297.469
297.492
297.491
297.503
297.487
297.427
297.467
297.443
297.455
297.486
297.486
297.507
297.487
297.533
297.533
297.528
297.518
297.484
297.507
297.508
297.505
297.447
297.421
297.482
297.506
297.512
297.485
297.467
297.488
297.456
297.497
297.518
297.513
297.462
297.512
297.526
297.489
297.505
297.482
297.401
297.392
297.463
297.494
297.504
297.49
297.491
297.454
297.454
297.507
297.516
297.491
297.419
297.489
297.522
297.543
297.544
297.542
297.514
297.452
297.512
297.514
297.504
297.454
297.476
297.49
297.514
297.502
297.471
297.454
297.463
297.518
297.532
297.535
291.795
291.738
291.721
291.676
291.867
291.893
291.883
291.842
291.911
291.773
291.85
292.074
292.239
292.157
292.314
292.268
292.39
292.506
292.617
292.634
292.725
292.889
293.068
293.16
293.369
293.542
293.701
293.886
294.048
294.165
294.152
294.334
294.488
294.639
294.786
294.906
295.04
295.137
295.275
295.346
295.535
295.638
295.796
295.963
296.075
296.161
296.245
296.334
296.398
296.444
296.417
296.449
296.547
296.629
296.679
296.769
296.829
296.87
296.835
296.879
296.936
296.902
296.962
296.977
296.986
296.948
296.998
296.997
296.989
296.964
296.968
296.977
296.96
296.959
296.957
296.897
296.855
296.881
296.866
296.894
296.83
296.826
296.866
296.952
296.962
296.976
296.906
296.9
296.849
296.864
296.929
296.94
296.898
296.961
296.962
296.958
296.907
296.913
296.95
296.959
296.953
296.909
296.971
296.941
297.005
297.002
296.981
296.981
296.982
296.925
296.907
296.942
296.928
296.967
296.941
296.93
296.88
296.94
296.989
296.997
296.975
296.936
296.956
296.923
296.972
296.98
296.971
296.992
296.977
296.929
296.925
296.988
296.966
297.016
297.023
297.003
297.006
297.019
297.031
297.033
296.982
296.949
296.992
296.967
297.009
296.986
296.918
296.943
296.954
296.951
296.976
296.959
297.011
296.977
296.992
296.95
296.95
296.972
297.002
296.972
296.924
296.906
296.958
296.933
296.974
297.007
297.014
297.016
296.979
296.939
296.979
296.94
296.898
296.915
296.979
297.009
297.019
297.031
297.029
297.016
296.988
296.96
296.955
296.996
296.975
296.978
296.931
296.975
297.003
297.037
297.041
297.028
296.96
296.969
296.948
296.915
296.952
296.979
296.942
296.968
296.929
296.968
296.964
296.995
296.998
296.933
296.923
296.963
296.947
296.962
296.956
296.949
296.905
296.96
296.961
296.99
296.945
296.939
296.954
297.028
297.048
296.981
296.995
296.938
296.977
296.98
296.999
296.985
296.955
296.99
296.984
297.026
297.004
297.011
296.986
296.985
296.969
296.975
297.015
297.035
297.055
297.025
297.03
297.01
296.945
297.002
297.018
296.947
297.005
297.027
297.032
297.025
297.02
296.994
297.007
296.953
296.971
297.027
297.005
297.038
297.035
297.021
297.023
296.97
296.95
297.006
297.002
296.995
296.962
296.894
296.944
296.916
296.873
296.912
296.907
296.979
297.026
297.007
296.951
296.904
296.886
296.939
296.912
296.965
296.95
296.91
296.902
296.891
296.913
296.939
296.904
296.949
296.926
296.993
297.007
296.99
296.931
296.91
296.968
296.949
296.996
296.978
296.951
296.898
296.907
296.887
296.951
296.951
297.028
297.048
297.044
297.038
297.001
296.968
296.943
297.004
296.971
297.005
297.016
296.967
296.929
296.959
296.932
296.97
296.987
296.957
297
296.993
296.946
296.934
296.914
296.984
296.985
297.008
296.989
296.993
296.99
296.948
296.963
296.964
296.943
296.981
296.994
297.006
297.034
297.002
296.955
296.936
296.942
296.92
296.961
296.96
296.908
296.891
296.941
296.907
296.96
296.951
296.948
296.972
296.963
296.931
296.982
296.991
296.946
296.945
296.991
296.986
296.943
296.983
296.938
296.955
297.002
296.993
296.999
296.983
297.027
297.024
296.984
296.989
296.975
296.98
297.003
297.001
296.957
296.967
297.05
297.045
297.018
296.976
296.936
296.981
296.975
297.008
296.989
296.982
296.927
296.929
296.87
296.87
296.941
296.95
297.003
297.012
296.957
297.018
297.03
297.001
297.003
297.027
297.008
296.952
297.013
297.001
297.032
297.029
297.058
297.05
297.026
297.015
297
296.987
296.989
296.985
297.004
296.936
296.931
296.911
296.976
297.006
297.011
297.03
297.03
296.982
297.002
296.975
296.944
296.914
296.9
296.915
296.959
296.964
297.015
297.005
297.03
297.017
296.961
296.932
296.944
296.93
296.965
296.981
297.04
297.026
297.009
296.979
296.923
296.941
297.006
297.014
296.94
296.993
296.969
297.027
297.014
296.961
296.987
297
297.004
296.953
296.963
296.998
297.015
296.984
297.022
297.038
297.025
296.974
296.91
296.892
296.953
296.968
297.001
296.956
296.977
296.93
296.981
296.999
296.989
296.978
296.926
296.992
296.99
297.002
297.034
297.021
297.044
297.05
296.986
296.958
296.966
296.933
296.916
296.913
296.942
296.961
296.905
296.913
296.926
297.001
297.044
297.069
290.362
290.494
290.4
290.581
290.598
290.586
290.558
290.663
290.694
290.61
290.812
290.881
290.978
291.094
291.058
291.01
291.217
291.192
291.338
291.326
291.381
291.589
291.888
292.092
292.261
292.333
292.619
292.735
292.939
293.05
293.25
293.389
293.467
293.676
293.794
293.974
294.067
294.168
294.411
294.529
294.685
294.766
294.99
295.157
295.303
295.427
295.475
295.572
295.688
295.778
295.784
295.883
295.933
296.055
296.088
296.177
296.227
296.329
296.303
296.329
296.415
296.463
296.456
296.467
296.437
296.404
296.462
296.47
296.448
296.401
296.391
296.453
296.408
296.412
296.454
296.445
296.369
296.379
296.378
296.393
296.43
296.369
296.427
296.473
296.475
296.443
296.392
296.369
296.358
296.371
296.406
296.433
296.414
296.473
296.466
296.42
296.358
296.36
296.382
296.4
296.419
296.406
296.47
296.432
296.482
296.45
296.405
296.414
296.456
296.405
296.401
296.4
296.379
296.446