/*--------------------------------*- C++ -*----------------------------------*\
| =========                 |                                                 |
| \\      /  F ield         | OpenFOAM: The Open Source CFD Toolbox           |
|  \\    /   O peration     | Version:  v2012                                 |
|   \\  /    A nd           | Website:  www.openfoam.com                      |
|    \\/     M anipulation  |                                                 |
\*---------------------------------------------------------------------------*/
FoamFile
{
    version     2.0;
    format      ascii;
    class       volScalarField;
    location    "200";
    object      theta;
}
// * * * * * * * * * * * * * * * * * * * * * * * * * * * * * * * * * * * * * //

dimensions      [0 0 0 1 0 0 0];


internalField   nonuniform List<scalar> 
65536
(
-2.27451
-2.26605
-2.26459
-2.25116
-2.25285
-2.24156
-2.22003
-2.19268
-2.18341
-2.15623
-2.14537
-2.16026
-2.22954
-2.12569
-2.03664
-1.9769
-1.94846
-1.95125
-2.02907
-1.91542
-1.83103
-1.78244
-1.79922
-1.71966
-1.68305
-1.75627
-1.67922
-1.71759
-1.65935
-1.65478
-1.62182
-1.56677
-1.52205
-1.46715
-1.4204
-1.37198
-1.31993
-1.26819
-1.21331
-1.16071
-1.10635
-1.05459
-1.00702
-0.959562
-0.915689
-0.874696
-0.836278
-0.802902
-0.77202
-0.7442
-0.720587
-0.696211
-0.676295
-0.65832
-0.640896
-0.624465
-0.610599
-0.595725
-0.588734
-0.580139
-0.574235
-0.5685
-0.565263
-0.563887
-0.560983
-0.558235
-0.555181
-0.553779
-0.55135
-0.548823
-0.548091
-0.548953
-0.550889
-0.554364
-0.558135
-0.56179
-0.566884
-0.570453
-0.573944
-0.577835
-0.580683
-0.586945
-0.59001
-0.590895
-0.592638
-0.59127
-0.587261
-0.583775
-0.580149
-0.576838
-0.573385
-0.570682
-0.567863
-0.566777
-0.563412
-0.560609
-0.558217
-0.555779
-0.554597
-0.55555
-0.557349
-0.559272
-0.560237
-0.561624
-0.557993
-0.55489
-0.549577
-0.544062
-0.541385
-0.537532
-0.535571
-0.535646
-0.538079
-0.541606
-0.545173
-0.549682
-0.556839
-0.563356
-0.566936
-0.566691
-0.562718
-0.555325
-0.5466
-0.538932
-0.534402
-0.52887
-0.526083
-0.524973
-0.526012
-0.527782
-0.52843
-0.530788
-0.530689
-0.532038
-0.533343
-0.533516
-0.534101
-0.533505
-0.533169
-0.533025
-0.535038
-0.537485
-0.542506
-0.544643
-0.545082
-0.545141
-0.542433
-0.541046
-0.53924
-0.537314
-0.535171
-0.533368
-0.532269
-0.53335
-0.533631
-0.535226
-0.535953
-0.53702
-0.534778
-0.532407
-0.529125
-0.524532
-0.522597
-0.519761
-0.519852
-0.520605
-0.522981
-0.52423
-0.527533
-0.530261
-0.531225
-0.529526
-0.529075
-0.527851
-0.527339
-0.528472
-0.529842
-0.530398
-0.529882
-0.527386
-0.523325
-0.519307
-0.515221
-0.512237
-0.508449
-0.505012
-0.500528
-0.498135
-0.497183
-0.497718
-0.500578
-0.504045
-0.505566
-0.505838
-0.505855
-0.507728
-0.510369
-0.513216
-0.514856
-0.516902
-0.518018
-0.520837
-0.523195
-0.525141
-0.528775
-0.531657
-0.534616
-0.538328
-0.542092
-0.54645
-0.550484
-0.551948
-0.551273
-0.550852
-0.549305
-0.546586
-0.544054
-0.540475
-0.53871
-0.537081
-0.534679
-0.53452
-0.530133
-0.524353
-0.518434
-0.513249
-0.50879
-0.50606
-0.505031
-0.50459
-0.506429
-0.505546
-0.509847
-0.513513
-0.517274
-0.521817
-0.525476
-0.527814
-0.52497
-0.521034
-0.515212
-0.511649
-0.507223
-0.504744
-0.503906
-0.506242
-0.5043
-0.505005
-0.504039
-0.503884
-0.505939
-0.508033
-0.511023
-0.514383
-0.517241
-0.520184
-0.522141
-0.520349
-0.520497
-0.517645
-0.510239
-0.50484
-0.498129
-0.489327
-0.483143
-0.479032
-0.477045
-0.476567
-0.475939
-0.478114
-0.481787
-0.485231
-0.488649
-0.493824
-0.49651
-0.499128
-0.498602
-0.498704
-0.495944
-0.494875
-0.490636
-0.488705
-0.486988
-0.487873
-0.489778
-0.491126
-0.492464
-0.493317
-0.49232
-0.491581
-0.490376
-0.486709
-0.483476
-0.480994
-0.479026
-0.478015
-0.47697
-0.478248
-0.479449
-0.480576
-0.48339
-0.483121
-0.484473
-0.484941
-0.488677
-0.491642
-0.497198
-0.502687
-0.508316
-0.514573
-0.51894
-0.521412
-0.525627
-0.529334
-0.529539
-0.528761
-0.529783
-0.529225
-0.525666
-0.523204
-0.520826
-0.51972
-0.520387
-0.522098
-0.521913
-0.523829
-0.523246
-0.520279
-0.515586
-0.510234
-0.504044
-0.499335
-0.496829
-0.496079
-0.495953
-0.49787
-0.502521
-0.506927
-0.512927
-0.518651
-0.522905
-0.525605
-0.527515
-0.528654
-0.527912
-0.523994
-0.521128
-0.518013
-0.515812
-0.513
-0.511031
-0.507054
-0.502753
-0.499462
-0.498052
-0.495941
-0.495291
-0.492751
-0.490119
-0.487621
-0.483893
-0.480073
-0.477402
-0.475175
-0.474877
-0.474188
-0.47558
-0.476912
-0.478334
-0.478835
-0.47821
-0.479682
-0.480698
-0.484424
-0.489239
-0.495596
-0.5024
-0.509965
-0.516709
-0.519389
-0.518827
-0.517002
-0.515974
-0.515593
-0.514723
-0.513713
-0.510872
-0.508778
-0.504298
-0.498922
-0.495284
-0.493932
-0.494004
-0.496607
-0.500649
-0.505647
-0.510636
-0.517106
-0.520661
-0.522771
-0.524404
-0.526302
-0.526821
-0.526211
-0.52782
-0.526486
-0.526111
-0.527605
-0.529447
-0.530024
-0.528541
-0.524861
-0.521061
-0.517178
-0.515951
-0.513548
-0.509546
-0.508595
-0.506673
-0.502338
-0.49644
-0.493546
-0.488632
-0.482962
-0.478699
-0.476102
-0.477274
-0.480115
-0.486348
-0.494226
-0.50215
-0.510989
-0.514973
-0.520144
-0.522263
-0.522386
-0.523531
-0.52315
-0.524735
-0.525629
-0.52846
-0.530708
-0.532073
-0.534429
-0.533571
-0.527094
-0.522392
-0.515472
-0.510366
-0.506477
-0.504109
-0.501838
-0.498257
-0.49754
-0.495754
-0.494594
-0.493942
-0.49556
-0.496501
-0.497116
-0.499522
-0.501617
-0.500496
-0.496864
-0.496506
-0.494228
-0.492941
-0.490292
-0.488146
-0.485879
-0.484251
-0.483485
-0.485918
-0.487723
-0.491708
-0.497151
-0.503483
-0.510221
-0.517016
-0.520791
-0.524133
-0.524707
-0.521692
-0.520299
-0.517072
-0.513229
-0.51233
-0.510977
-0.510864
-0.512891
-0.516297
-0.515381
-0.51506
-0.512346
-0.510416
-0.508696
-0.504957
-0.503327
-0.498517
-0.494709
-0.491566
-0.489486
-0.488043
-0.488349
-0.487347
-0.487911
-0.488505
-0.490951
-0.494064
-0.498233
-0.503736
-0.507166
-2.38235
-2.3842
-2.38141
-2.38344
-2.38103
-2.33559
-2.3425
-2.29576
-2.28023
-2.26337
-2.25009
-2.22262
-2.19641
-2.15205
-2.09921
-2.07329
-2.0064
-1.99155
-1.94503
-1.916
-1.85142
-1.82425
-1.78371
-1.73668
-1.68528
-1.63984
-1.61325
-1.55482
-1.52804
-1.46949
-1.41528
-1.35996
-1.29512
-1.23222
-1.16674
-1.10331
-1.04185
-0.977602
-0.919118
-0.862821
-0.805426
-0.749079
-0.692336
-0.644498
-0.592753
-0.549601
-0.509988
-0.469526
-0.43869
-0.406957
-0.378975
-0.362434
-0.337492
-0.319427
-0.300776
-0.285165
-0.271146
-0.267861
-0.244852
-0.236874
-0.226951
-0.227435
-0.226001
-0.218424
-0.217185
-0.214925
-0.216385
-0.20771
-0.203172
-0.202384
-0.202431
-0.202967
-0.202602
-0.201606
-0.205347
-0.214018
-0.214375
-0.221715
-0.227305
-0.230633
-0.240519
-0.237388
-0.247702
-0.255494
-0.248111
-0.245439
-0.239769
-0.232674
-0.22798
-0.223144
-0.221549
-0.219959
-0.22067
-0.21391
-0.214636
-0.210638
-0.205233
-0.204996
-0.204981
-0.204335
-0.208292
-0.215868
-0.223744
-0.219026
-0.218956
-0.205395
-0.198247
-0.195143
-0.185656
-0.188007
-0.186313
-0.185869
-0.185799
-0.188859
-0.195338
-0.205487
-0.211143
-0.222058
-0.231792
-0.230868
-0.217831
-0.206294
-0.198405
-0.191673
-0.179903
-0.178537
-0.174602
-0.175319
-0.175121
-0.1745
-0.179582
-0.175373
-0.182305
-0.181318
-0.181022
-0.18284
-0.183437
-0.18458
-0.181645
-0.181788
-0.181477
-0.188912
-0.191718
-0.198947
-0.204955
-0.198787
-0.196384
-0.188759
-0.186693
-0.184792
-0.186906
-0.190097
-0.192151
-0.186217
-0.185881
-0.186545
-0.19379
-0.193981
-0.196335
-0.187711
-0.179626
-0.177899
-0.170073
-0.172297
-0.16885
-0.171456
-0.174761
-0.185824
-0.184039
-0.182672
-0.17873
-0.182857
-0.181991
-0.178738
-0.178639
-0.177938
-0.185338
-0.190428
-0.185184
-0.179691
-0.173296
-0.16939
-0.167155
-0.162746
-0.157795
-0.153489
-0.151918
-0.145929
-0.144892
-0.149662
-0.15515
-0.159263
-0.157624
-0.155158
-0.157571
-0.158453
-0.15754
-0.159513
-0.166803
-0.172107
-0.17579
-0.174504
-0.175467
-0.177413
-0.176393
-0.179406
-0.183538
-0.189087
-0.194734
-0.20023
-0.199643
-0.201669
-0.203775
-0.202403
-0.203862
-0.204106
-0.195281
-0.19101
-0.186572
-0.18877
-0.196169
-0.188991
-0.188114
-0.180761
-0.169983
-0.163927
-0.163354
-0.158783
-0.154511
-0.156778
-0.155682
-0.168815
-0.163323
-0.165031
-0.173193
-0.174724
-0.179591
-0.182083
-0.181838
-0.175669
-0.17326
-0.160345
-0.156324
-0.155499
-0.158397
-0.154167
-0.164393
-0.155991
-0.152961
-0.154885
-0.153941
-0.154209
-0.159607
-0.168971
-0.178185
-0.178522
-0.176848
-0.185349
-0.178313
-0.175675
-0.176081
-0.160345
-0.146904
-0.143016
-0.136048
-0.128889
-0.126358
-0.127629
-0.136671
-0.135838
-0.134242
-0.135329
-0.143692
-0.143854
-0.150849
-0.155073
-0.164738
-0.16098
-0.158392
-0.147045
-0.147117
-0.141175
-0.14228
-0.140998
-0.138398
-0.144136
-0.145073
-0.145717
-0.147474
-0.143353
-0.138838
-0.138012
-0.13488
-0.130596
-0.127404
-0.12662
-0.130646
-0.129337
-0.131924
-0.134374
-0.130117
-0.134994
-0.133859
-0.139577
-0.136288
-0.144641
-0.148453
-0.159644
-0.168169
-0.168049
-0.172223
-0.182938
-0.182549
-0.180375
-0.188927
-0.195245
-0.187715
-0.183211
-0.185193
-0.175878
-0.171466
-0.169513
-0.170455
-0.175102
-0.186167
-0.180693
-0.179369
-0.180109
-0.169988
-0.159415
-0.15392
-0.147475
-0.142701
-0.141696
-0.143652
-0.148676
-0.149873
-0.158547
-0.164979
-0.171665
-0.175126
-0.177698
-0.178975
-0.176949
-0.171209
-0.174632
-0.170819
-0.169466
-0.167059
-0.166228
-0.162782
-0.160292
-0.15806
-0.156689
-0.150488
-0.150652
-0.146732
-0.148122
-0.144829
-0.137608
-0.13339
-0.132457
-0.12756
-0.125792
-0.122927
-0.124733
-0.12448
-0.126392
-0.12844
-0.130719
-0.131411
-0.12697
-0.130087
-0.13156
-0.138474
-0.143643
-0.153892
-0.16497
-0.172829
-0.172327
-0.171499
-0.17012
-0.169551
-0.168913
-0.170655
-0.170263
-0.174774
-0.166073
-0.156902
-0.151176
-0.145599
-0.142311
-0.142016
-0.145021
-0.149118
-0.155515
-0.16533
-0.164452
-0.167654
-0.17391
-0.174884
-0.17424
-0.181274
-0.188707
-0.179565
-0.177629
-0.176727
-0.178426
-0.183234
-0.189103
-0.184508
-0.178515
-0.169696
-0.169675
-0.163584
-0.164037
-0.170336
-0.161071
-0.155413
-0.15657
-0.161056
-0.148614
-0.140672
-0.132791
-0.129021
-0.130795
-0.129131
-0.135168
-0.138696
-0.142945
-0.155316
-0.162659
-0.178942
-0.176655
-0.178441
-0.182827
-0.174746
-0.176183
-0.17166
-0.177663
-0.180013
-0.18667
-0.195134
-0.190837
-0.188181
-0.192613
-0.179766
-0.172923
-0.163678
-0.157969
-0.153247
-0.154033
-0.159821
-0.150868
-0.14472
-0.142055
-0.14537
-0.144773
-0.15289
-0.161328
-0.158297
-0.15157
-0.153511
-0.160741
-0.152578
-0.150421
-0.144125
-0.142847
-0.138849
-0.134239
-0.132078
-0.134412
-0.13097
-0.137568
-0.142752
-0.150628
-0.154905
-0.160748
-0.165683
-0.175399
-0.176464
-0.177758
-0.183572
-0.172508
-0.167584
-0.167956
-0.161632
-0.161257
-0.162926
-0.165836
-0.165636
-0.174009
-0.165952
-0.163068
-0.160221
-0.158476
-0.16252
-0.150362
-0.146915
-0.143261
-0.141059
-0.140363
-0.140233
-0.134495
-0.136678
-0.13535
-0.138184
-0.138949
-0.145695
-0.151782
-0.158934
-0.168024
-2.61695
-2.65253
-2.65405
-2.63041
-2.60799
-2.601
-2.56694
-2.57007
-2.49109
-2.49542
-2.42758
-2.43358
-2.36446
-2.37791
-2.3206
-2.25404
-2.20348
-2.14402
-2.10397
-2.08002
-2.03061
-1.94741
-1.9146
-1.84227
-1.78016
-1.67785
-1.64865
-1.55658
-1.51
-1.45417
-1.38735
-1.31633
-1.2343
-1.16805
-1.07952
-1.01383
-0.932876
-0.870403
-0.797509
-0.723701
-0.666468
-0.605343
-0.54261
-0.47775
-0.431082
-0.373373
-0.330197
-0.290861
-0.250732
-0.22527
-0.200736
-0.170948
-0.158211
-0.135213
-0.113307
-0.0907582
-0.0766312
-0.0608951
-0.0597056
-0.037176
-0.028212
-0.01493
-0.0117747
-0.0121372
-0.00448777
-0.00523403
0.000557779
-0.000972401
0.00483335
0.00991621
0.0111407
0.00812622
0.00413513
-0.000602172
-0.0028717
-0.0050568
-0.0223482
-0.0217945
-0.020247
-0.026332
-0.0266836
-0.047988
-0.0465504
-0.0534823
-0.0576639
-0.0482719
-0.0429859
-0.0340537
-0.0247684
-0.021501
-0.0157969
-0.0137191
-0.013038
-0.0196694
-0.0122794
-0.00843365
-0.00594389
0.00406991
0.00669393
0.00286687
-0.00451909
-0.012125
-0.0208503
-0.0213365
-0.016115
-0.00806962
0.00478501
0.0148455
0.00971064
0.0211818
0.0215569
0.0186704
0.0106749
0.00445177
0.00203399
-0.000868074
-0.0178187
-0.0317426
-0.0506908
-0.0447549
-0.0252682
-0.00458412
0.0106459
0.021439
0.0191458
0.0297044
0.0329355
0.0403442
0.0383557
0.0312208
0.0306973
0.0200526
0.0327924
0.0313916
0.027594
0.0221622
0.025443
0.0291084
0.0318734
0.0332084
0.023246
0.0171163
0.00787682
0.00278352
0.00122459
0.00379367
0.0115101
0.00998412
0.0146147
0.0124902
0.019152
0.0231368
0.0234828
0.022911
0.0234086
0.0168172
0.0147854
0.00872968
0.00734166
0.0140014
0.0224156
0.0333894
0.0313317
0.0404587
0.0390388
0.0374125
0.0296711
0.0295284
0.0167304
0.0111156
0.000849274
0.00924707
0.0156289
0.0174558
0.0235375
0.0156697
0.0127577
-0.00347497
0.00838278
0.0248747
0.028814
0.0363199
0.0399996
0.0389443
0.0386081
0.0441861
0.0555938
0.0568813
0.0599491
0.0599299
0.0490068
0.0331577
0.0351871
0.0365452
0.0436892
0.0487895
0.0379006
0.0276246
0.0274407
0.0299109
0.0281607
0.0279177
0.028146
0.0206554
0.0137709
0.015498
0.0154049
0.0171799
0.0108031
0.00943538
0.00025091
0.00299643
0.00472286
0.00456736
-0.00221143
-0.0162919
-0.00277861
0.0122398
0.0157652
0.0138521
0.0125166
0.00750798
0.0141777
0.0263226
0.0311676
0.0360769
0.0424356
0.0435566
0.0390559
0.0423731
0.0322395
0.039861
0.0335016
0.0329909
0.0361454
0.0253191
0.0152373
0.00452325
0.0211171
0.028002
0.0353662
0.0413358
0.0521665
0.0563361
0.0525792
0.0332201
0.0372352
0.0406114
0.0475264
0.0568816
0.0537842
0.0459418
0.0428578
0.0348281
0.019718
0.0181411
0.0148424
0.0208663
0.0156466
0.0198048
0.0318565
0.0357208
0.0437247
0.0647146
0.0781522
0.0769683
0.0763815
0.0713684
0.0747497
0.0678189
0.066308
0.0581516
0.0598025
0.0455348
0.0408891
0.0343659
0.0350792
0.0392192
0.0451006
0.0491005
0.0655521
0.0657578
0.0693391
0.0631291
0.048539
0.0524325
0.048422
0.0539249
0.059432
0.0554929
0.054305
0.0632164
0.0734779
0.0778414
0.0774872
0.0782379
0.0797884
0.0744598
0.0739628
0.0705123
0.0628725
0.0689055
0.0696618
0.0749354
0.0650749
0.0688167
0.0549534
0.0461722
0.0281889
0.0278051
0.0243223
0.0231288
0.0159857
0.00798684
0.0153319
0.0160852
0.0145806
0.0171465
0.0220617
0.0254363
0.036815
0.0371259
0.0277016
0.0186205
0.0206118
0.0192107
0.0174688
0.0214467
0.0247367
0.0382456
0.0528812
0.0568075
0.0553401
0.0558279
0.0546765
0.0562696
0.0454337
0.043375
0.0392818
0.0359961
0.0332837
0.0298626
0.0280442
0.0228912
0.0170596
0.0338149
0.0350676
0.0360971
0.036089
0.0356053
0.0375617
0.0436675
0.0479865
0.0590953
0.0579102
0.0609731
0.0554943
0.0573271
0.062842
0.0649188
0.0710117
0.0837745
0.0851709
0.0891932
0.0897728
0.0859441
0.081073
0.0769841
0.0745992
0.0719111
0.0750626
0.0744885
0.0767335
0.0703093
0.0675431
0.0594125
0.0503621
0.0348961
0.0173561
0.0179668
0.0272093
0.0298416
0.0324918
0.0326739
0.0373123
0.0307769
0.0311508
0.0356686
0.0458831
0.0546911
0.0591969
0.0648768
0.0633901
0.0661358
0.0583393
0.0488925
0.0445603
0.0249029
0.0187061
0.0304429
0.0291936
0.0232893
0.0255156
0.0255714
0.0187098
0.0268027
0.0280391
0.0218847
0.00860955
-0.000681361
0.00557356
0.019334
0.0198568
0.0332631
0.0288885
0.03044
0.0398979
0.0354783
0.0344508
0.0397767
0.0520409
0.0532795
0.061332
0.0677511
0.0775079
0.0862959
0.0809269
0.0821003
0.0704347
0.0512628
0.0416557
0.0222805
0.0150935
0.0113792
0.0193399
0.0297526
0.0266313
0.0372493
0.0335561
0.0383613
0.0312285
0.0218138
0.0120993
0.00586225
0.000452007
0.00873305
0.0181343
0.0364573
0.0457337
0.0507655
0.0465296
0.0437123
0.0440318
0.0533133
0.0600756
0.063305
0.0665354
0.0562248
0.0530207
0.0435676
0.0412774
0.0340602
0.0401857
0.0515106
0.0518493
0.0585392
0.0546589
0.0594561
0.0597554
0.0638227
0.0679545
0.0733457
0.0651538
0.0688697
0.0630193
0.0592403
0.0488508
0.0372306
0.0229286
0.020705
0.0186805
0.0210849
0.0327262
0.0311219
0.0382668
0.046302
0.0437454
0.0489229
0.0462782
0.0395272
0.0250946
0.0294234
0.0309024
0.0402752
0.0462697
0.0400187
0.0401669
0.0362944
0.05018
0.0609444
0.064219
0.0676667
0.0729882
0.0685094
0.0714358
0.0699298
0.0687026
0.0640848
0.0672576
0.0566978
0.0405939
0.0236913
-3.00326
-3.02346
-3.03218
-3.05906
-2.99918
-3.02933
-2.93524
-2.93719
-2.9001
-2.86148
-2.82619
-2.76742
-2.74344
-2.7001
-2.67956
-2.55932
-2.56393
-2.46412
-2.43282
-2.35216
-2.30734
-2.21963
-2.17729
-2.09234
-1.99859
-1.88062
-1.79679
-1.71821
-1.67389
-1.63013
-1.53292
-1.43078
-1.32537
-1.22856
-1.14696
-1.03517
-0.977877
-0.873535
-0.816686
-0.743257
-0.656893
-0.573137
-0.50902
-0.440347
-0.369799
-0.317446
-0.257402
-0.215172
-0.178125
-0.141763
-0.111696
-0.0992553
-0.0726976
-0.0636486
-0.0246154
0.00492808
0.0182928
-0.00673039
0.046802
0.0649398
0.0836141
0.0786054
0.0777608
0.0937795
0.0987049
0.0995147
0.079695
0.108028
0.12106
0.125791
0.11968
0.106673
0.119283
0.123314
0.116745
0.102068
0.0974567
0.0937157
0.0857273
0.0837045
0.065839
0.0679659
0.0413646
0.00775948
0.0366836
0.0314975
0.0686346
0.0870627
0.0892332
0.0943854
0.100069
0.10376
0.0989984
0.099796
0.105529
0.112076
0.122363
0.121012
0.120693
0.115488
0.110848
0.0867534
0.0423725
0.0684882
0.0516832
0.106707
0.128831
0.126859
0.125071
0.126186
0.12958
0.132963
0.130082
0.108138
0.107146
0.100718
0.0957992
0.0691335
-0.00123979
0.0112856
0.0779728
0.109263
0.123972
0.122452
0.129225
0.146059
0.160728
0.152161
0.147645
0.139634
0.132399
0.139338
0.135644
0.144772
0.147035
0.147352
0.139012
0.13572
0.146239
0.149246
0.150679
0.128418
0.102667
0.097698
0.0663706
0.1058
0.118237
0.131206
0.128605
0.135754
0.13125
0.114605
0.0951145
0.119912
0.129442
0.126392
0.103133
0.0981074
0.0717776
0.114211
0.132846
0.134466
0.14723
0.14963
0.159328
0.156321
0.13981
0.096408
0.106388
0.0981126
0.110703
0.11172
0.104488
0.129015
0.135741
0.14089
0.11713
0.057084
0.117796
0.133704
0.148684
0.149056
0.142062
0.13314
0.144281
0.142474
0.154743
0.177529
0.184172
0.17353
0.150673
0.10143
0.136449
0.153632
0.156904
0.148117
0.152646
0.150915
0.143871
0.138688
0.139733
0.139197
0.134905
0.134774
0.134562
0.133362
0.132246
0.125463
0.126069
0.11741
0.120286
0.115994
0.117993
0.115833
0.0988072
0.0486015
0.109955
0.128701
0.135834
0.126428
0.0817429
0.101738
0.0850661
0.119296
0.144634
0.142987
0.119031
0.137716
0.151799
0.144072
0.139545
0.103005
0.138737
0.13811
0.115348
0.127909
0.117509
0.069164
0.11794
0.132748
0.112081
0.15842
0.171619
0.166564
0.152166
0.144829
0.101413
0.149236
0.171465
0.163897
0.15259
0.167743
0.161341
0.134075
0.0818248
0.118638
0.123109
0.0833907
0.108086
0.0901826
0.0864946
0.128165
0.145593
0.163144
0.175294
0.192211
0.191312
0.176368
0.135003
0.161216
0.171195
0.176395
0.153165
0.150936
0.143805
0.134538
0.0902877
0.121189
0.131206
0.154027
0.157611
0.172051
0.166908
0.164715
0.161423
0.152694
0.155681
0.153117
0.151524
0.156109
0.155905
0.166026
0.172504
0.186362
0.195694
0.194703
0.186601
0.182073
0.176719
0.170637
0.168716
0.178169
0.183571
0.178126
0.186288
0.168769
0.169437
0.142939
0.0910822
0.131733
0.132068
0.0969055
0.117439
0.117155
0.102693
0.0713447
0.111488
0.116536
0.0903438
0.137103
0.14462
0.146105
0.139786
0.118396
0.0690212
0.106495
0.111952
0.0876765
0.130268
0.151575
0.159228
0.169676
0.176042
0.165026
0.174393
0.1663
0.159738
0.157039
0.146275
0.128486
0.134205
0.139876
0.130486
0.119946
0.131214
0.138237
0.152446
0.153623
0.147743
0.132131
0.115092
0.134736
0.152153
0.152782
0.162983
0.157878
0.158981
0.152543
0.162668
0.17872
0.18286
0.182052
0.19697
0.195615
0.193091
0.195091
0.196466
0.186744
0.16534
0.150741
0.169225
0.191833
0.196084
0.19374
0.180759
0.176292
0.165438
0.138629
0.0810562
0.122358
0.134276
0.143453
0.142164
0.129662
0.124258
0.118839
0.0862285
0.117095
0.1478
0.166818
0.177504
0.182807
0.190894
0.1821
0.177058
0.166457
0.139894
0.1355
0.132973
0.127324
0.140278
0.142783
0.123186
0.0845212
0.113493
0.133442
0.146349
0.142676
0.115455
0.0622482
0.0952823
0.118767
0.141596
0.136727
0.133937
0.136769
0.110266
0.140348
0.143805
0.140796
0.112242
0.142611
0.151666
0.177799
0.191162
0.189924
0.194624
0.180096
0.17744
0.17251
0.153304
0.128284
0.0688054
0.113779
0.118215
0.10332
0.131549
0.137825
0.146126
0.140959
0.137581
0.116466
0.0733653
0.0982404
0.0877395
0.0619228
0.112859
0.132916
0.148472
0.15542
0.162064
0.146457
0.10511
0.156493
0.174101
0.180593
0.174504
0.174987
0.147145
0.102185
0.129494
0.142724
0.13934
0.118102
0.148248
0.153071
0.161758
0.159772
0.161746
0.176102
0.185986
0.18042
0.176909
0.175903
0.171003
0.145538
0.151449
0.14725
0.133875
0.112799
0.124522
0.125118
0.0988155
0.134354
0.146132
0.144078
0.149609
0.153794
0.158024
0.144853
0.124336
0.0936982
0.144652
0.1669
0.164297
0.153128
0.113177
0.144295
0.168434
0.179411
0.183871
0.180709
0.174655
0.184699
0.188382
0.182813
0.17684
0.175084
0.166466
0.163067
0.140722
0.0825706
-3.62334
-3.58446
-3.64673
-3.66768
-3.60712
-3.51796
-3.54657
-3.50964
-3.51582
-3.38914
-3.41923
-3.28803
-3.32498
-3.28974
-3.16743
-3.08342
-3.00873
-3.0015
-2.85781
-2.85028
-2.74702
-2.69987
-2.54793
-2.48586
-2.34042
-2.27235
-2.08705
-2.01446
-1.94924
-2.00337
-1.83015
-1.68575
-1.57227
-1.42599
-1.3371
-1.22369
-1.10974
-1.04086
-0.923512
-0.84127
-0.761725
-0.678439
-0.582588
-0.50063
-0.413748
-0.352042
-0.28766
-0.226514
-0.180793
-0.145868
-0.124801
-0.0941492
-0.0914701
-0.10419
-0.0237732
0.0290729
0.0449677
-0.00973616
0.0453001
0.107412
0.13359
0.132934
0.107827
0.14554
0.167436
0.159943
0.112895
0.161077
0.181279
0.183442
0.171484
0.122646
0.157518
0.168543
0.162604
0.144374
0.0963295
0.122346
0.135281
0.126501
0.111546
0.0709312
0.0878305
0.0369661
0.0735937
0.0280337
0.105159
0.131492
0.143516
0.143385
0.147518
0.140459
0.121552
0.0949971
0.138346
0.150868
0.154116
0.168066
0.18099
0.183432
0.167282
0.149989
0.082608
0.123615
0.0918601
0.155237
0.174292
0.175283
0.126347
0.168264
0.180115
0.177694
0.153271
0.0988703
0.140511
0.143269
0.110276
0.105896
0.050145
0.0642616
0.132905
0.166293
0.179478
0.177028
0.130997
0.185475
0.19781
0.214083
0.206014
0.193136
0.169088
0.137991
0.188233
0.202311
0.201996
0.186428
0.188887
0.169728
0.202801
0.21348
0.1892
0.155488
0.099318
0.133881
0.0990671
0.154421
0.163994
0.163469
0.165138
0.148855
0.168319
0.175904
0.12857
0.181622
0.191698
0.170466
0.124372
0.143418
0.107897
0.160473
0.177927
0.183404
0.174772
0.189051
0.200088
0.204757
0.184621
0.113938
0.139901
0.0951317
0.0871304
0.120813
0.093273
0.150947
0.18086
0.166099
0.167915
0.110825
0.156174
0.188141
0.183131
0.191687
0.182477
0.132525
0.16013
0.139381
0.198099
0.218564
0.231431
0.236844
0.213235
0.151798
0.181385
0.177431
0.191539
0.196771
0.176886
0.138836
0.138178
0.162052
0.158096
0.173582
0.175454
0.149518
0.131431
0.162269
0.155925
0.170567
0.157101
0.157994
0.138888
0.152639
0.148232
0.161796
0.155948
0.103304
0.154556
0.17902
0.190627
0.18066
0.119304
0.155383
0.125707
0.17345
0.184139
0.172971
0.111992
0.169079
0.171077
0.181782
0.160249
0.115331
0.174034
0.179726
0.133723
0.17452
0.168784
0.128243
0.18526
0.194147
0.156031
0.208684
0.226976
0.223294
0.19678
0.144338
0.117574
0.191103
0.21189
0.214931
0.167289
0.206899
0.21387
0.193791
0.121078
0.150723
0.151696
0.104135
0.137134
0.0854617
0.0901825
0.161261
0.145653
0.209797
0.233758
0.237703
0.232062
0.21037
0.132752
0.181507
0.201058
0.189926
0.18621
0.145132
0.152187
0.15798
0.114217
0.163847
0.14478
0.179814
0.208227
0.209405
0.21179
0.199348
0.155157
0.174466
0.163004
0.179702
0.188475
0.179858
0.145986
0.198504
0.225253
0.237698
0.240882
0.237341
0.229856
0.21969
0.214133
0.191303
0.154302
0.202846
0.215384
0.22173
0.208365
0.218769
0.208812
0.197799
0.140691
0.193366
0.186068
0.131885
0.153034
0.119792
0.14355
0.0883072
0.144526
0.163613
0.122474
0.176666
0.200989
0.197194
0.171974
0.123718
0.0808815
0.157196
0.162656
0.112079
0.149888
0.177693
0.193837
0.215116
0.204154
0.162552
0.201543
0.204771
0.159433
0.183237
0.174849
0.14052
0.174587
0.181294
0.168748
0.11878
0.119118
0.184365
0.191805
0.191281
0.184672
0.169421
0.10511
0.165825
0.169281
0.197361
0.204315
0.210246
0.196462
0.164458
0.197209
0.207734
0.21947
0.230238
0.235893
0.249222
0.249662
0.244247
0.23262
0.222936
0.204731
0.147929
0.209656
0.225145
0.233069
0.220078
0.201458
0.217424
0.216787
0.188937
0.122595
0.144866
0.168305
0.168642
0.170473
0.13789
0.175205
0.171228
0.109016
0.131027
0.188206
0.202222
0.19495
0.220879
0.226255
0.23197
0.21979
0.19933
0.178936
0.123341
0.131727
0.161661
0.17591
0.182165
0.171604
0.0948393
0.117056
0.185232
0.201677
0.187529
0.165982
0.100767
0.105404
0.15439
0.143611
0.171044
0.139038
0.170815
0.132861
0.179932
0.151818
0.175276
0.121477
0.174454
0.159841
0.212639
0.230589
0.224797
0.224995
0.232125
0.215009
0.183913
0.178637
0.128569
0.081249
0.121106
0.148746
0.113093
0.164696
0.190663
0.195354
0.200996
0.19015
0.171591
0.106564
0.138046
0.0867979
0.073845
0.14403
0.182857
0.200146
0.208691
0.196735
0.184695
0.138115
0.204203
0.227174
0.222987
0.220208
0.208564
0.199713
0.129286
0.165067
0.137481
0.169879
0.133932
0.190132
0.200765
0.175392
0.18844
0.160634
0.206316
0.221859
0.221593
0.176157
0.214213
0.204527
0.155084
0.192087
0.17678
0.133031
0.101007
0.1457
0.153662
0.112175
0.177047
0.194516
0.188546
0.163877
0.202442
0.206481
0.184905
0.121226
0.106257
0.179701
0.208665
0.221898
0.19684
0.135203
0.140632
0.19733
0.214263
0.212017
0.200225
0.215615
0.217884
0.21918
0.228013
0.22563
0.213382
0.216196
0.221602
0.204688
0.137961
-4.19702
-4.27309
-4.41653
-4.43955
-4.2943
-4.16512
-4.20546
-4.23988
-4.12691
-4.17012
-4.211
-4.00209
-3.88752
-3.99024
-3.79678
-3.75462
-3.59623
-3.5248
-3.48211
-3.40311
-3.31276
-3.2118
-3.14931
-3.06891
-2.87
-2.66903
-2.56712
-2.4043
-2.34969
-2.39741
-2.2567
-2.0301
-1.88086
-1.78541
-1.60693
-1.5125
-1.38534
-1.28397
-1.18904
-1.10964
-0.978981
-0.862473
-0.738975
-0.6498
-0.559811
-0.456382
-0.397671
-0.335736
-0.272131
-0.231947
-0.216377
-0.205175
-0.138981
-0.144732
-0.0561648
0.0120097
0.0615908
0.0763914
0.033216
0.101725
0.128779
0.10942
0.143855
0.167515
0.176514
0.18408
0.190163
0.18765
0.19511
0.197431
0.18515
0.142068
0.17118
0.183189
0.173033
0.126458
0.0557387
0.106948
0.105318
0.110703
0.0552631
0.013029
0.0692192
0.114063
0.121845
0.0648483
0.10816
0.124752
0.102859
0.100581
0.137212
0.139335
0.0839893
0.0730355
0.13568
0.135821
0.155502
0.16565
0.167482
0.171575
0.168683
0.143824
0.167455
0.157922
0.18769
0.194856
0.203558
0.179766
0.108421
0.144126
0.143777
0.163595
0.157221
0.0938086
0.11807
0.122558
0.076019
0.141358
0.170495
0.165543
0.172165
0.170872
0.173941
0.149933
0.118068
0.180293
0.211859
0.202004
0.191296
0.164326
0.122341
0.0985407
0.161395
0.201986
0.216945
0.208195
0.2081
0.209315
0.219766
0.219162
0.207735
0.129116
0.106841
0.163166
0.188471
0.178082
0.138559
0.167208
0.147994
0.126644
0.182553
0.174766
0.192239
0.188129
0.195243
0.184713
0.166992
0.171569
0.181476
0.181534
0.164902
0.136862
0.130582
0.147226
0.207558
0.222762
0.219104
0.210807
0.173312
0.108336
0.0640576
0.122269
0.0945879
0.152137
0.173368
0.152277
0.20395
0.227271
0.201172
0.196442
0.168312
0.181361
0.169961
0.140416
0.174918
0.132026
0.164072
0.215552
0.24062
0.242978
0.233128
0.215894
0.18313
0.149972
0.174859
0.15382
0.168477
0.0972577
0.0957741
0.14798
0.153738
0.185923
0.184293
0.169054
0.119204
0.14289
0.114299
0.149963
0.131373
0.150037
0.122337
0.142514
0.114467
0.171793
0.180345
0.195798
0.180613
0.159074
0.187349
0.216509
0.221476
0.192165
0.187271
0.163969
0.201063
0.188832
0.130754
0.165518
0.144889
0.174538
0.161116
0.200907
0.2142
0.203481
0.184705
0.191358
0.202618
0.222046
0.218692
0.233089
0.24131
0.247696
0.246426
0.218747
0.158879
0.126374
0.187531
0.18984
0.226673
0.221943
0.193102
0.232539
0.23706
0.212444
0.210305
0.150746
0.196121
0.204639
0.196771
0.141577
0.194175
0.194476
0.143686
0.187851
0.193392
0.231554
0.243468
0.235172
0.220148
0.144115
0.181885
0.183919
0.127304
0.0993919
0.112017
0.18312
0.201962
0.181046
0.160739
0.165986
0.159894
0.188397
0.160598
0.165417
0.118656
0.128103
0.10906
0.13667
0.15636
0.163058
0.111466
0.169019
0.176355
0.213454
0.230061
0.217818
0.190144
0.165485
0.179554
0.140504
0.126862
0.191965
0.19799
0.173794
0.192056
0.160806
0.200222
0.198371
0.236112
0.2322
0.23111
0.204823
0.179571
0.116722
0.139345
0.183789
0.149456
0.194448
0.214377
0.212695
0.192881
0.193208
0.175438
0.143167
0.189754
0.172101
0.185428
0.18307
0.137258
0.176075
0.145104
0.200056
0.212002
0.164163
0.208674
0.200606
0.142474
0.180393
0.185933
0.154947
0.173605
0.19553
0.191952
0.131644
0.104476
0.177835
0.198749
0.191049
0.175337
0.144238
0.105245
0.141375
0.111187
0.144285
0.175879
0.162579
0.176787
0.165926
0.184016
0.202941
0.185172
0.176611
0.225544
0.224472
0.205829
0.210652
0.232521
0.218547
0.169605
0.144391
0.178447
0.217612
0.239006
0.237201
0.206988
0.222676
0.240288
0.227467
0.202253
0.158386
0.175175
0.156819
0.180281
0.143762
0.153399
0.170639
0.197939
0.179672
0.20675
0.198225
0.14926
0.204206
0.22606
0.232993
0.232103
0.206298
0.143687
0.0784883
0.0692105
0.106262
0.176537
0.193413
0.190085
0.187324
0.133643
0.194106
0.222857
0.220946
0.194291
0.18098
0.132416
0.146968
0.117699
0.178986
0.154346
0.21726
0.230028
0.21585
0.167551
0.200375
0.213081
0.197863
0.179216
0.212153
0.218753
0.170337
0.202644
0.184498
0.202525
0.157927
0.185256
0.141353
0.180497
0.125029
0.163384
0.171273
0.172991
0.160887
0.1613
0.166615
0.189539
0.188683
0.200615
0.184463
0.124444
0.165159
0.140363
0.152536
0.183332
0.183926
0.204436
0.184761
0.230758
0.231035
0.226184
0.2153
0.181968
0.204754
0.205372
0.202406
0.14513
0.118327
0.179673
0.20406
0.209843
0.182918
0.164453
0.185903
0.153841
0.195166
0.215849
0.210477
0.159579
0.20947
0.224105
0.187081
0.203139
0.17946
0.0987743
0.0897002
0.160573
0.191937
0.201445
0.187657
0.188782
0.152154
0.152219
0.204823
0.214122
0.189036
0.117087
0.18703
0.219749
0.240799
0.241933
0.239513
0.212101
0.150184
0.210189
0.211429
0.201414
0.15178
0.17407
0.188149
0.211675
0.199874
0.168294
0.151348
0.160478
0.215388
0.229252
0.232855
-5.01703
-5.07336
-5.09045
-5.13533
-4.94513
-4.91902
-4.92864
-4.96973
-4.90083
-5.03832
-4.96152
-4.73757