/*--------------------------------*- C++ -*----------------------------------*\
| =========                 |                                                 |
| \\      /  F ield         | OpenFOAM: The Open Source CFD Toolbox           |
|  \\    /   O peration     | Version:  v2012                                 |
|   \\  /    A nd           | Website:  www.openfoam.com                      |
|    \\/     M anipulation  |                                                 |
\*---------------------------------------------------------------------------*/
FoamFile
{
    version     2.0;
    format      ascii;
    class       volVectorField;
    location    "200";
    object      U_filtered;
}
// * * * * * * * * * * * * * * * * * * * * * * * * * * * * * * * * * * * * * //

dimensions      [0 1 -1 0 0 0 0];


internalField   nonuniform List<vector> 
65536
(
(0.496734 -0.503524 0)
(1.47369 -0.479883 0)
(2.40055 -0.466899 0)
(3.30617 -0.453415 0)
(4.17859 -0.438136 0)
(5.0287 -0.42204 0)
(5.85389 -0.421075 0)
(6.67049 -0.424039 0)
(7.48591 -0.416481 0)
(8.28627 -0.410181 0)
(9.10462 -0.417316 0)
(9.93512 -0.411399 0)
(10.7367 -0.401224 0)
(11.5 -0.402312 0)
(12.2772 -0.393431 0)
(13.0344 -0.379392 0)
(13.7621 -0.368158 0)
(14.4833 -0.358657 0)
(15.201 -0.338067 0)
(15.8355 -0.331544 0)
(16.4917 -0.321577 0)
(17.1089 -0.295138 0)
(17.683 -0.273305 0)
(18.219 -0.255408 0)
(18.7294 -0.238371 0)
(19.2019 -0.225877 0)
(19.6374 -0.201394 0)
(20.0143 -0.181482 0)
(20.3225 -0.143368 0)
(20.5739 -0.127608 0)
(20.8309 -0.144594 0)
(21.0945 -0.136092 0)
(21.3185 -0.0973527 0)
(21.4976 -0.0682587 0)
(21.644 -0.0628232 0)
(21.7665 -0.0573179 0)
(21.8488 -0.0372161 0)
(21.8919 -0.00920207 0)
(21.887 0.0198846 0)
(21.8651 0.0383392 0)
(21.795 0.0374161 0)
(21.7144 0.0500847 0)
(21.572 0.0700197 0)
(21.4106 0.0801187 0)
(21.2256 0.104123 0)
(20.9868 0.114115 0)
(20.7472 0.106738 0)
(20.5082 0.117525 0)
(20.2489 0.131059 0)
(19.9969 0.147356 0)
(19.6936 0.165504 0)
(19.3813 0.15258 0)
(19.0858 0.144479 0)
(18.7777 0.156068 0)
(18.4599 0.169091 0)
(18.1194 0.18349 0)
(17.7577 0.168305 0)
(17.4309 0.158434 0)
(17.0765 0.171923 0)
(16.7129 0.189615 0)
(16.3216 0.200819 0)
(15.9417 0.1811 0)
(15.5968 0.176847 0)
(15.2194 0.196463 0)
(14.8307 0.194165 0)
(14.4612 0.1884 0)
(14.0908 0.177809 0)
(13.7546 0.1624 0)
(13.4226 0.17442 0)
(13.0611 0.182669 0)
(12.7106 0.171703 0)
(12.3809 0.161028 0)
(12.0625 0.160939 0)
(11.7399 0.161389 0)
(11.4258 0.149492 0)
(11.1363 0.145388 0)
(10.84 0.140466 0)
(10.5593 0.136071 0)
(10.2788 0.145574 0)
(9.98988 0.152965 0)
(9.69296 0.141814 0)
(9.4313 0.122376 0)
(9.18445 0.121196 0)
(8.94163 0.114785 0)
(8.72231 0.0988171 0)
(8.51979 0.109841 0)
(8.28195 0.114762 0)
(8.06827 0.107009 0)
(7.85826 0.111213 0)
(7.64411 0.102125 0)
(7.4556 0.088625 0)
(7.26986 0.086638 0)
(7.08535 0.0970539 0)
(6.87788 0.10415 0)
(6.68084 0.101389 0)
(6.48405 0.0928054 0)
(6.31297 0.0909671 0)
(6.12593 0.093257 0)
(5.95209 0.0916526 0)
(5.76588 0.0795464 0)
(5.61813 0.0732128 0)
(5.45579 0.0786938 0)
(5.30793 0.0737402 0)
(5.15936 0.076418 0)
(5.01562 0.0786476 0)
(4.87646 0.0691103 0)
(4.75063 0.0616229 0)
(4.62757 0.0626989 0)
(4.49635 0.057117 0)
(4.38721 0.0471884 0)
(4.28581 0.0478906 0)
(4.17804 0.057736 0)
(4.05758 0.0665474 0)
(3.93975 0.0633009 0)
(3.82685 0.0464993 0)
(3.72831 0.0485578 0)
(3.60542 0.0609236 0)
(3.49827 0.0582579 0)
(3.39632 0.0405738 0)
(3.31959 0.0295764 0)
(3.24535 0.0408031 0)
(3.16322 0.0463362 0)
(3.09313 0.0412042 0)
(3.0273 0.0323077 0)
(2.96432 0.0198749 0)
(2.90847 0.0242095 0)
(2.84428 0.0312958 0)
(2.77902 0.0383095 0)
(2.69564 0.0519287 0)
(2.60449 0.0507673 0)
(2.52033 0.0343758 0)
(2.45154 0.0324182 0)
(2.37445 0.044371 0)
(2.28878 0.0416691 0)
(2.21814 0.0414482 0)
(2.13217 0.0373419 0)
(2.069 0.0247015 0)
(2.02278 0.0238729 0)
(1.98344 0.0212051 0)
(1.9409 0.0172322 0)
(1.89532 0.0268451 0)
(1.83054 0.0338359 0)
(1.77 0.0357024 0)
(1.70636 0.0301614 0)
(1.66368 0.0171386 0)
(1.6326 0.0129785 0)
(1.60119 0.00741121 0)
(1.58634 0.00735953 0)
(1.55558 0.0136565 0)
(1.51664 0.0165488 0)
(1.47194 0.0242352 0)
(1.43477 0.0300085 0)
(1.38759 0.0252556 0)
(1.36065 0.0112299 0)
(1.3472 0.00170519 0)
(1.33761 0.0084121 0)
(1.31234 0.0128722 0)
(1.2797 0.0096331 0)
(1.26707 0.00589073 0)
(1.25149 0.0099826 0)
(1.2239 0.0195902 0)
(1.17414 0.0171653 0)
(1.13868 0.0204959 0)
(1.08945 0.0324592 0)
(1.03097 0.0305944 0)
(0.991874 0.0222318 0)
(0.94759 0.0148496 0)
(0.938239 0.00965979 0)
(0.919119 0.00529471 0)
(0.900282 0.0142693 0)
(0.868799 0.0243307 0)
(0.819084 0.0197081 0)
(0.790965 0.0209331 0)
(0.745057 0.0201079 0)
(0.729375 0.0112043 0)
(0.715353 0.00486183 0)
(0.701356 -0.0041468 0)
(0.699683 -0.00995415 0)
(0.701534 -0.00078143 0)
(0.712368 0.00830307 0)
(0.704807 0.00184835 0)
(0.701946 -0.00494231 0)
(0.693046 0.00172209 0)
(0.672141 0.00466316 0)
(0.671474 -0.00372946 0)
(0.678945 0.0034232 0)
(0.657137 0.0176977 0)
(0.634299 0.0218396 0)
(0.600403 0.0227327 0)
(0.567109 0.0165607 0)
(0.546042 0.0103381 0)
(0.511152 0.00840449 0)
(0.500819 0.00836342 0)
(0.467275 0.00226971 0)
(0.468959 -0.00334873 0)
(0.473238 -0.004492 0)
(0.476335 -0.0035066 0)
(0.46506 0.0122391 0)
(0.442461 0.021385 0)
(0.422206 0.0148598 0)
(0.39762 0.00425018 0)
(0.397127 -0.00222853 0)
(0.393446 -0.00475283 0)
(0.391533 -0.0114372 0)
(0.408593 0.00263992 0)
(0.386862 0.0213883 0)
(0.366492 0.012932 0)
(0.353453 0.000239574 0)
(0.34798 -0.00579266 0)
(0.345711 0.00103613 0)
(0.329239 0.00456834 0)
(0.331882 0.00364377 0)
(0.329153 0.0102607 0)
(0.321478 0.0141633 0)
(0.308041 0.0100245 0)
(0.301244 -0.000564573 0)
(0.295824 -0.00556489 0)
(0.287771 -0.00130426 0)
(0.271326 0.013781 0)
(0.240763 0.0145739 0)
(0.233329 0.000262795 0)
(0.243993 -5.81291e-05 0)
(0.23109 -0.000681758 0)
(0.234305 -0.00387525 0)
(0.237332 -0.00741664 0)
(0.242423 -0.000269979 0)
(0.250663 0.00904775 0)
(0.251313 -0.00112204 0)
(0.265652 -0.00305697 0)
(0.249091 0.00204634 0)
(0.240536 0.000405493 0)
(0.236739 -0.00186322 0)
(0.227989 0.00974723 0)
(0.205255 0.0243857 0)
(0.178372 0.0166344 0)
(0.161077 0.00444331 0)
(0.149175 0.00542033 0)
(0.132234 -0.00442687 0)
(0.154157 -0.0141814 0)
(0.166473 -0.0105198 0)
(0.176819 -0.00727031 0)
(0.197434 0.00268951 0)
(0.179452 0.00184246 0)
(0.173347 -0.00242333 0)
(0.170509 0.00339534 0)
(0.167677 0.0148592 0)
(0.158071 0.015947 0)
(0.152634 -0.000320512 0)
(0.148069 -0.00779875 0)
(0.148564 -0.00172181 0)
(0.144895 0.0131054 0)
(0.126159 0.0132983 0)
(0.125872 0.00118935 0)
(0.114196 -0.00610615 0)
(0.114866 -0.0076478 0)
(0.132363 0.0059493 0)
(0.118908 0.00603869 0)
(0.128833 -0.00648569 0)
(0.147602 -0.0072834 0)
(0.148518 -0.0108713 0)
(0.169075 -0.00774986 0)
(0.182205 0.00998574 0)
(0.155187 0.00619616 0)
(0.150351 0.00151137 0)
(0.122332 0.010327 0)
(0.111554 0.0111522 0)
(0.0959081 0.00385893 0)
(0.0863644 -0.00127603 0)
(0.0864943 0.00438075 0)
(0.0827238 0.00783613 0)
(0.0821555 -0.00263803 0)
(0.0894382 -0.0123445 0)
(0.0956869 0.00405757 0)
(0.0761332 0.0137607 0)
(0.0599368 0.00608829 0)
(0.0426691 0.00516345 0)
(0.0426014 -6.56418e-06 0)
(0.0439274 -0.0103817 0)
(0.0555844 -0.0105304 0)
(0.0653835 -0.00296068 0)
(0.0895131 -0.000489015 0)
(0.0935841 -0.00146482 0)
(0.0893308 0.00896128 0)
(0.0620945 0.0161882 0)
(0.0477893 0.000209176 0)
(0.0537265 -0.0112969 0)
(0.0580145 -0.0106687 0)
(0.0682879 0.00218492 0)
(0.0799547 0.00521088 0)
(0.091083 -0.000765729 0)
(0.080766 0.00473049 0)
(0.081819 0.00638179 0)
(0.0719819 -0.000434954 0)
(0.0651131 0.00223932 0)
(0.0429714 0.0126658 0)
(0.0265998 0.00989485 0)
(0.0151894 0.00315239 0)
(0.00716251 0.00312857 0)
(4.66484e-05 -0.00355402 0)
(0.0110656 -0.00488461 0)
(0.00249665 0.00438773 0)
(0.00239702 0.00370607 0)
(-0.00272319 -0.0013818 0)
(0.00188233 -0.00274228 0)
(0.023716 -0.0113937 0)
(0.0549395 -0.0151107 0)
(0.066591 -0.00047437 0)
(0.0525673 0.0104005 0)
(0.0355478 0.00619228 0)
(0.0239483 0.0053563 0)
(0.0156253 -0.000832495 0)
(0.021779 -0.0132812 0)
(0.0543445 -0.00742075 0)
(0.0356493 0.00385617 0)
(0.0451963 0.00479098 0)
(0.0401179 -0.0010521 0)
(0.037793 -0.00103513 0)
(0.0239593 0.00408003 0)
(0.0260883 0.0069109 0)
(0.0345544 0.0102937 0)
(0.0198998 0.00555759 0)
(0.0160251 -0.00169224 0)
(0.00540851 -0.00108773 0)
(-0.00278179 0.00449489 0)
(0.00283297 0.00104799 0)
(0.00161706 -0.00651035 0)
(0.00634606 -0.0127163 0)
(0.0316975 -0.0150728 0)
(0.0444987 -0.0168935 0)
(0.0917125 -0.0138035 0)
(0.121657 0.00109764 0)
(0.12187 0.00476476 0)
(0.118594 -0.00179594 0)
(0.112302 0.0019753 0)
(0.0934855 0.011032 0)
(0.063941 0.0112118 0)
(0.0354669 0.0165868 0)
(0.00862076 0.0198564 0)
(-0.0153393 0.0110048 0)
(-0.0366604 0.00777023 0)
(-0.0318404 -0.000476209 0)
(-0.0286644 -0.0124103 0)
(-0.00981406 -0.0134373 0)
(0.00468125 -0.00719237 0)
(0.0201332 0.00125758 0)
(0.0376384 0.00374277 0)
(0.0560153 -0.0062228 0)
(0.0571717 -0.0123074 0)
(0.0767229 -0.00987494 0)
(0.0855527 -0.0058114 0)
(0.0835396 0.00010572 0)
(0.0727035 0.0111297 0)
(0.0520714 0.0146852 0)
(0.0292077 0.00754304 0)
(0.0133122 0.00317093 0)
(0.0104345 -0.00106169 0)
(0.00407641 -0.00960715 0)
(0.0189747 -0.00837584 0)
(0.0359808 -8.73205e-05 0)
(0.0464534 0.00120628 0)
(0.061631 -0.00226814 0)
(0.0692778 -0.00252514 0)
(0.0685642 0.000184846 0)
(0.0732192 -0.000129233 0)
(0.0726464 -0.000294815 0)
(0.0679168 0.00790039 0)
(0.0557378 0.00837383 0)
(0.0494264 0.00247504 0)
(0.0368857 -0.00220241 0)
(0.0360751 -0.00385653 0)
(0.0364615 0.000759354 0)
(0.0348766 0.00456379 0)
(0.051085 0.00613984 0)
(0.0376603 0.00119774 0)
(0.0391622 -0.00103882 0)
(0.0356982 0.0019395 0)
(0.0302667 0.00192147 0)
(0.0246611 -0.00225788 0)
(0.0251495 -0.00571978 0)
(0.0355263 0.00303322 0)
(0.0199924 0.0144259 0)
(0.00720732 0.00818987 0)
(0.0181633 0.00338612 0)
(0.0091346 0.00308148 0)
(0.00420371 -0.00602065 0)
(0.011315 -0.0104552 0)
(0.0161432 -0.00453015 0)
(0.0258539 0.00846626 0)
(0.00570794 0.00691887 0)
(0.00879689 -0.00366697 0)
(0.00134023 -0.00204943 0)
(-0.00525233 0.00387593 0)
(0.0128627 0.00231169 0)
(0.0120675 -0.00451466 0)
(0.021497 -0.00646178 0)
(0.033339 -0.00525863 0)
(0.0307891 -0.00280916 0)
(0.0333723 0.0049066 0)
(0.021235 0.00816501 0)
(0.019159 0.00677424 0)
(-0.00398276 0.00570018 0)
(-0.0175093 0.00824242 0)
(-0.0396832 0.00434564 0)
(-0.0258917 -0.0118312 0)
(-0.00351888 -0.00981724 0)
(-0.0122792 0.000799202 0)
(-0.0140325 -0.000180245 0)
(-0.00377673 -0.00603332 0)
(0.0264177 -0.00571606 0)
(0.0448996 -0.000798441 0)
(0.0559662 0.00111371 0)
(0.0542116 0.00220876 0)
(0.0433038 0.000774079 0)
(0.0279797 0.00357144 0)
(0.00885156 0.0143304 0)
(-0.0202446 0.0122495 0)
(-0.0114675 -0.00392268 0)
(0.00313991 -0.0128658 0)
(0.0180493 -0.00857323 0)
(0.0223635 0.00257657 0)
(0.0141937 0.00627024 0)
(0.0155771 -0.00445305 0)
(0.0266575 -0.010872 0)
(0.0396022 -0.00433619 0)
(0.0342661 -0.000948987 0)
(0.0267874 0.00294386 0)
(0.0136309 0.0121569 0)
(-0.0071408 0.0206606 0)
(-0.0274417 0.0163268 0)
(-0.0482346 0.00871642 0)
(-0.0696771 0.0105091 0)
(-0.0775077 0.004563 0)
(-0.0764528 -0.00884695 0)
(-0.0521521 -0.00855678 0)
(-0.0637606 -0.00655384 0)
(-0.0291297 -0.0120194 0)
(-0.0164029 -0.0111839 0)
(0.00186074 -0.00202123 0)
(0.0129857 0.00288076 0)
(0.0142889 -0.00421342 0)
(0.0349973 -0.00427635 0)
(0.0269936 -0.0079303 0)
(0.0491049 -0.0085997 0)
(0.0447884 -8.69501e-05 0)
(0.0471075 0.00234384 0)
(0.0427983 -0.00204435 0)
(0.0507498 -0.00620186 0)
(0.0530877 -0.00059232 0)
(0.060529 0.00539582 0)
(0.0480093 -0.000256757 0)
(0.0554695 -0.0104942 0)
(0.0647712 -0.0108594 0)
(0.0711593 -0.00533528 0)
(0.0772824 0.00821478 0)
(0.0621482 0.010544 0)
(0.061728 0.00533271 0)
(0.0501171 0.0144804 0)
(0.0294007 0.0167672 0)
(0.00499164 0.00246006 0)
(0.00445731 -0.00573181 0)
(0.0067918 -0.00163029 0)
(0.00451568 0.00351481 0)
(-0.0154381 0.0120156 0)
(-0.0191039 0.00646325 0)
(-0.0187765 0.000819027 0)
(-0.0298606 0.00304662 0)
(-0.0239256 -0.00561712 0)
(-0.0116537 -0.00943372 0)
(-0.00667097 -0.00938757 0)
(0.0138941 -0.0151908 0)
(0.035322 -0.00445085 0)
(0.041282 0.00617156 0)
(0.0289953 0.00246633 0)
(0.0213652 0.00779232 0)
(0.020126 0.00953989 0)
(0.00424383 0.00473049 0)
(-0.00823582 0.00427434 0)
(-0.0215731 0.000258734 0)
(-0.0321197 0.000170645 0)
(-0.0390957 0.00240258 0)
(-0.0397879 0.0067459 0)
(-0.0463847 0.0105514 0)
(-0.0323124 0.00490609 0)
(-0.0228016 -0.00453503 0)
(-0.0132664 -0.0112072 0)
(-0.0025284 -0.00773797 0)
(-0.0164844 0.000175093 0)
(-0.0245341 -0.0057845 0)
(-0.0079514 -0.0111502 0)
(0.0035518 -0.00108581 0)
(-0.00720262 -0.000920325 0)
(0.0129073 -0.00645389 0)
(0.037634 0.00105502 0)
(0.0401631 0.00678224 0)
(0.0326327 0.00571321 0)
(0.0268423 0.00646961 0)
(0.00741721 0.002748 0)
(0.00686638 -0.00639067 0)
(0.00411453 -0.00630141 0)
(-0.00266707 -0.00210925 0)
(0.000511997 -0.00133407 0)
(0.00435356 0.00505331 0)
(0.0167526 0.0123293 0)
(-0.00167021 0.0074692 0)
(-0.000666392 -0.00030954 0)
(-0.00851499 0.000223333 0)
(-0.0233051 0.00252296 0)
(-0.0201312 -0.00266566 0)
(-0.0204949 -0.00771633 0)
(-0.0146179 -0.00436558 0)
(-0.0208267 0.000180804 0)
(-0.0117084 -0.0023715 0)
(0.483878 -1.51979 0)
(1.41552 -1.44041 0)
(2.31329 -1.39053 0)
(3.19872 -1.35111 0)
(4.07155 -1.31816 0)
(4.95598 -1.27442 0)
(5.8088 -1.24779 0)
(6.61554 -1.23764 0)
(7.43618 -1.23889 0)
(8.26583 -1.23994 0)
(9.08226 -1.26312 0)
(9.89237 -1.25386 0)
(10.7037 -1.19748 0)
(11.4783 -1.17457 0)
(12.2616 -1.16354 0)
(13.0287 -1.12955 0)
(13.7617 -1.09733 0)
(14.4806 -1.1034 0)
(15.2162 -1.02471 0)
(15.848 -0.964988 0)
(16.4715 -0.961519 0)
(17.0939 -0.910656 0)
(17.67 -0.837619 0)
(18.2021 -0.803093 0)
(18.7329 -0.763147 0)
(19.1997 -0.701884 0)
(19.6267 -0.612012 0)
(19.9843 -0.515543 0)
(20.2859 -0.422228 0)
(20.5769 -0.388359 0)
(20.8406 -0.387232 0)
(21.0468 -0.357947 0)
(21.2588 -0.312908 0)
(21.4752 -0.261367 0)
(21.6473 -0.210982 0)
(21.7584 -0.152906 0)
(21.8265 -0.0932425 0)
(21.873 -0.0352509 0)
(21.867 0.00160968 0)
(21.8903 0.0475907 0)
(21.8331 0.107617 0)
(21.728 0.167285 0)
(21.5909 0.228109 0)
(21.418 0.261027 0)
(21.2262 0.316515 0)
(21.0109 0.361705 0)
(20.7453 0.371378 0)
(20.463 0.380858 0)
(20.2024 0.381054 0)
(19.9562 0.409067 0)
(19.6951 0.451566 0)
(19.419 0.45656 0)
(19.092 0.459608 0)
(18.7752 0.470225 0)
(18.4541 0.489425 0)
(18.1418 0.518578 0)
(17.8064 0.519419 0)
(17.4308 0.522129 0)
(17.0473 0.54519 0)
(16.6683 0.565462 0)
(16.3048 0.571159 0)
(15.9569 0.546201 0)
(15.5719 0.548974 0)
(15.2011 0.574301 0)
(14.8348 0.568842 0)
(14.4665 0.556757 0)
(14.1156 0.534293 0)
(13.7578 0.510998 0)
(13.4023 0.52421 0)
(13.0685 0.533606 0)
(12.7236 0.512954 0)
(12.3924 0.49002 0)
(12.0627 0.483018 0)
(11.7539 0.476916 0)
(11.4414 0.455805 0)
(11.1356 0.441822 0)
(10.8381 0.437504 0)
(10.5333 0.426131 0)
(10.2492 0.425332 0)
(9.9899 0.433996 0)
(9.71759 0.418441 0)
(9.44556 0.387039 0)
(9.17421 0.369791 0)
(8.94482 0.347844 0)
(8.70635 0.323201 0)
(8.47272 0.330653 0)
(8.25956 0.337033 0)
(8.04514 0.317069 0)
(7.85133 0.313555 0)
(7.6601 0.301429 0)
(7.45892 0.286994 0)
(7.24688 0.285473 0)
(7.04432 0.297371 0)
(6.84524 0.30244 0)
(6.66347 0.295149 0)
(6.47273 0.277575 0)
(6.30458 0.269686 0)
(6.12635 0.269883 0)
(5.96279 0.270725 0)
(5.77296 0.255914 0)
(5.59645 0.238405 0)
(5.42938 0.233269 0)
(5.29171 0.224313 0)
(5.13314 0.218128 0)
(5.0215 0.206304 0)
(4.90374 0.198078 0)
(4.7755 0.189552 0)
(4.6451 0.19352 0)
(4.50986 0.184585 0)
(4.38121 0.164747 0)
(4.2531 0.162006 0)
(4.13923 0.171 0)
(4.0323 0.172305 0)
(3.9518 0.167944 0)
(3.83525 0.165128 0)
(3.69886 0.173598 0)
(3.57273 0.169564 0)
(3.49462 0.151992 0)
(3.40078 0.138585 0)
(3.29283 0.121858 0)
(3.19928 0.11628 0)
(3.14411 0.106368 0)
(3.09594 0.095107 0)
(3.05114 0.0963429 0)
(2.96325 0.0983345 0)
(2.87064 0.0952304 0)
(2.80959 0.0973756 0)
(2.74206 0.10962 0)
(2.67017 0.122226 0)
(2.61861 0.123908 0)
(2.54093 0.118316 0)
(2.4398 0.113413 0)
(2.37185 0.118965 0)
(2.2982 0.11525 0)
(2.23011 0.11614 0)
(2.15826 0.112559 0)
(2.08574 0.086026 0)
(2.0284 0.0632563 0)
(2.00527 0.0624199 0)
(1.94417 0.0722077 0)
(1.88305 0.0847651 0)
(1.82944 0.0927571 0)
(1.77534 0.0896443 0)
(1.7356 0.0778246 0)
(1.69368 0.0576355 0)
(1.64987 0.0506169 0)
(1.61143 0.0393561 0)
(1.57819 0.0386583 0)
(1.54145 0.0561753 0)
(1.48651 0.0676106 0)
(1.43129 0.057661 0)
(1.42295 0.0546809 0)
(1.39763 0.0489729 0)
(1.38869 0.0298772 0)
(1.35951 0.0220825 0)
(1.33684 0.0277856 0)
(1.3112 0.0468078 0)
(1.25749 0.037659 0)
(1.25068 0.0237862 0)
(1.21969 0.0349404 0)
(1.1951 0.0594372 0)
(1.13743 0.069669 0)
(1.08444 0.0656335 0)
(1.05018 0.077117 0)
(1.01415 0.0686775 0)
(0.998176 0.0629475 0)
(0.946835 0.0405719 0)
(0.952559 0.0203905 0)
(0.923955 0.034181 0)
(0.882886 0.0370395 0)
(0.87388 0.0579483 0)
(0.829864 0.0592615 0)
(0.804282 0.0539864 0)
(0.771598 0.042613 0)
(0.778885 0.0192238 0)
(0.770176 0.0238007 0)
(0.740739 0.0211966 0)
(0.706108 0.010403 0)
(0.683526 -0.0106591 0)
(0.718231 -0.010367 0)
(0.723312 0.00976357 0)
(0.700112 0.0177001 0)
(0.666258 0.028962 0)
(0.638359 0.0173848 0)
(0.632004 -0.00289856 0)
(0.623448 0.010889 0)
(0.616392 0.0268469 0)
(0.627458 0.0347088 0)
(0.611907 0.0441756 0)
(0.601453 0.0376721 0)
(0.580983 0.0456688 0)
(0.526981 0.0367079 0)
(0.51922 0.035713 0)
(0.463084 0.0290929 0)
(0.453531 -0.00209468 0)
(0.459473 -0.00271135 0)
(0.441789 0.012054 0)
(0.418623 0.0219818 0)
(0.4348 0.0218915 0)
(0.441873 0.0312203 0)
(0.41573 0.0217979 0)
(0.409146 0.00757997 0)
(0.393678 0.0113835 0)
(0.367577 -0.0027708 0)
(0.36323 0.00309696 0)
(0.377426 0.0219597 0)
(0.3898 0.0220505 0)
(0.373882 0.0200321 0)
(0.347619 0.0156146 0)
(0.32221 0.0200406 0)
(0.313827 0.011686 0)
(0.320868 -0.00129649 0)
(0.323942 0.00260534 0)
(0.339994 0.00855849 0)
(0.346682 0.0118492 0)
(0.349767 0.0128305 0)
(0.328638 0.019576 0)
(0.291421 0.0260836 0)
(0.26163 0.0336705 0)
(0.2557 0.0239608 0)
(0.25042 -0.00314455 0)
(0.258117 0.00294295 0)
(0.239325 0.0108408 0)
(0.231859 -0.0012717 0)
(0.223979 5.02378e-06 0)
(0.20855 -0.0125053 0)
(0.249277 -0.0173125 0)
(0.274987 -0.0133649 0)
(0.283645 0.00575737 0)
(0.255263 0.0231379 0)
(0.232619 0.0116824 0)
(0.213402 0.0141908 0)
(0.190256 0.0211258 0)
(0.205329 0.0245436 0)
(0.218016 0.0272711 0)
(0.193349 0.0244595 0)
(0.169731 0.0231847 0)
(0.152347 -0.00037817 0)
(0.152352 -0.0195571 0)
(0.145519 -0.0115559 0)
(0.141677 -0.0234114 0)
(0.175941 -0.00438251 0)
(0.154321 0.0233081 0)
(0.121675 0.0126039 0)
(0.113092 0.00359194 0)
(0.125831 -0.00124948 0)
(0.173424 0.000126348 0)
(0.183366 0.0114245 0)
(0.153938 0.0129632 0)
(0.131123 0.00652018 0)
(0.133695 0.0106615 0)
(0.15477 0.0070683 0)
(0.166672 0.011879 0)
(0.134427 0.0187495 0)
(0.103371 -0.00945234 0)
(0.124862 -0.00826291 0)
(0.134724 -0.000882734 0)
(0.149527 -0.0205456 0)
(0.165355 -0.0104708 0)
(0.149294 -0.00913222 0)
(0.149689 -0.0244374 0)
(0.18312 0.00505853 0)
(0.172123 0.0262395 0)
(0.142998 0.0324631 0)
(0.098503 0.0293612 0)
(0.103857 0.0163082 0)
(0.0949982 0.021705 0)
(0.0683399 0.0111051 0)
(0.067166 -0.00114778 0)
(0.080786 -0.0033325 0)
(0.0953551 -0.00449711 0)
(0.0796389 -0.00146408 0)
(0.0662833 0.00893732 0)
(0.0783139 0.021386 0)
(0.0666875 0.026566 0)
(0.0391704 0.0116399 0)
(0.0557809 -0.00245937 0)
(0.0438607 -0.00266869 0)
(0.0282534 -0.0118111 0)
(0.0362544 -0.0308766 0)
(0.0873086 -0.0280019 0)
(0.0950959 0.00213238 0)
(0.0797452 0.0223912 0)
(0.0728503 0.0258715 0)
(0.0721388 0.00750861 0)
(0.0584075 0.00174914 0)
(0.0329207 -0.00319656 0)
(0.0392418 -0.0228808 0)
(0.0948202 -0.0270506 0)
(0.115493 0.00143641 0)
(0.0952088 0.00547441 0)
(0.119064 0.0041167 0)
(0.107837 0.0183695 0)
(0.0724709 0.028982 0)
(0.0464633 0.027882 0)
(0.0531093 0.0202249 0)
(0.0344814 0.0189108 0)
(0.0231262 0.0145196 0)
(0.0187704 0.00237924 0)
(0.0106948 0.00519599 0)
(-0.00497619 0.00666844 0)
(0.0116223 0.004061 0)
(-0.0026788 0.00392506 0)
(0.00663211 -0.0217136 0)
(0.0417791 -0.0400915 0)
(0.0612384 -0.0265184 0)
(0.0594737 0.00407416 0)
(0.0596498 0.0219205 0)
(0.0463269 0.0230165 0)
(0.0304108 0.0150966 0)
(0.0229835 0.00363456 0)
(0.0151274 -0.0250886 0)
(0.0385939 -0.00577364 0)
(0.00472419 0.00577801 0)
(0.0375691 -0.00836615 0)
(0.0394459 0.00964575 0)
(0.0161328 0.0182746 0)
(-0.00292465 0.00868101 0)
(0.0125961 -0.0168311 0)
(0.059615 -0.00336709 0)
(0.0570778 0.013595 0)
(0.0475403 0.0166485 0)
(0.0122684 0.0204731 0)
(-0.00210344 -0.00176424 0)
(0.0280526 -0.00461829 0)
(0.00388343 0.00252057 0)
(-0.00205282 -0.0172921 0)
(0.00745379 -0.0236562 0)
(0.00490993 -0.0435435 0)
(0.0536416 -0.0643432 0)
(0.104247 -0.0318271 0)
(0.13035 -0.00271334 0)
(0.123481 0.0107796 0)
(0.0966773 0.0225079 0)
(0.077999 0.0371995 0)
(0.0500182 0.0471449 0)
(0.00784896 0.0392676 0)
(0.0183169 0.0325962 0)
(0.00282991 0.0366031 0)
(-0.0211561 0.0115704 0)
(0.0073254 -0.00393083 0)
(-0.00567998 -0.0061825 0)
(-0.0157962 -0.0161151 0)
(-0.0108978 -0.0196606 0)
(0.00640755 -0.0311237 0)
(0.0613864 -0.0374998 0)
(0.103742 -0.0116395 0)
(0.0775027 -0.0074873 0)
(0.0839488 -0.018475 0)
(0.0858004 -0.00144582 0)
(0.0683781 0.012304 0)
(0.0541177 0.0198231 0)
(0.0559698 0.029018 0)
(0.0341703 0.0313671 0)
(0.00633015 0.0163526 0)
(0.00516109 0.0107981 0)
(-0.0259153 0.00213892 0)
(-0.0303702 -0.022359 0)
(0.00617298 -0.0258081 0)
(0.0372926 -0.024976 0)
(0.0653672 -0.0189041 0)
(0.0765129 -0.00219141 0)
(0.0673139 -0.0020682 0)
(0.0832434 -0.00198144 0)
(0.0707468 0.00706365 0)
(0.0636107 0.0105458 0)
(0.0686667 0.0114829 0)
(0.0609743 0.0177913 0)
(0.0337234 0.0164475 0)
(0.0125367 0.00497471 0)
(0.00716267 0.000793699 0)
(0.0156591 -0.0185206 0)
(0.0666308 -0.00830751 0)
(0.0587559 0.0117724 0)
(0.0498749 0.00415593 0)
(0.044357 0.00850709 0)
(0.0342493 0.0107042 0)
(0.0223075 0.00965524 0)
(0.00925566 -0.00263942 0)
(0.0170183 0.00490761 0)
(0.0136154 0.0165469 0)
(0.0285816 -0.00415799 0)
(0.0503025 -0.00298799 0)
(0.0538444 0.0126837 0)
(0.0344326 0.00538005 0)
(0.00693777 -0.000816386 0)
(-0.00514614 -0.00937589 0)
(0.0221809 0.00257781 0)
(0.019236 0.0103877 0)
(0.0171247 0.00832727 0)
(-0.0119219 0.0161315 0)
(-0.0218912 -0.0152255 0)
(0.0317772 -0.0190729 0)
(0.0268003 -0.00327093 0)
(0.0283453 -0.013481 0)
(0.0432261 -0.00237701 0)
(0.0235922 0.00471554 0)
(0.0235799 0.00644093 0)
(0.0304447 0.00736272 0)
(0.0424597 0.0203856 0)
(0.00508098 0.0325209 0)
(-0.0207791 0.0291075 0)
(-0.0406356 0.00516302 0)
(-0.0220917 -0.022489 0)
(-0.0212815 -0.00277969 0)
(-0.0467425 0.0111119 0)
(-0.0484946 -0.00723541 0)
(-0.0290791 -0.0329651 0)
(0.0110959 -0.0416798 0)
(0.0457018 -0.0276029 0)
(0.0761258 -0.00899675 0)
(0.0793845 0.0114963 0)
(0.0588133 0.0266661 0)
(0.0189281 0.0316738 0)
(-0.00929887 0.0347729 0)
(-0.0163242 0.00860736 0)
(0.01158 -0.0188801 0)
(0.0149971 -0.0161218 0)
(0.0112257 -0.0105028 0)
(0.01501 0.00195417 0)
(0.0169784 0.00109971 0)
(0.0237681 -0.00675052 0)
(0.0120148 -0.0124426 0)
(0.0207365 -0.00272682 0)
(0.00835305 0.0144265 0)
(-0.0141455 0.0186963 0)
(-0.0237495 0.0228788 0)
(-0.0194632 0.0213456 0)
(-0.000678058 0.0263689 0)
(-0.0269783 0.0344336 0)
(-0.0456425 0.020825 0)
(-0.0411247 0.00387447 0)
(-0.0398024 -0.0149081 0)
(-0.0286177 -0.00280451 0)
(-0.057487 -0.0146218 0)
(-0.0155704 -0.0336765 0)
(-0.0166224 -0.0182268 0)
(-0.00580517 -0.0257857 0)
(0.0338143 -0.0139541 0)
(0.0380418 -0.0162396 0)
(0.0542569 -0.00687167 0)
(0.040465 -0.00530132 0)
(0.0430622 -0.00862066 0)
(0.0314015 0.00239089 0)
(0.0355084 -0.000321588 0)
(0.0348885 -0.0022415 0)
(0.031803 -0.00466849 0)
(0.0264326 -0.0100944 0)
(0.0530843 -0.00128933 0)
(0.0453318 0.00424577 0)
(0.0378629 -0.00732129 0)
(0.0245179 -0.00622573 0)
(0.0189413 -0.00823385 0)
(0.0340545 0.000232474 0)
(0.0470901 0.00476716 0)
(0.056013 0.00649184 0)
(0.0493465 0.0183107 0)
(0.0571129 0.0286591 0)
(0.0360304 0.0227291 0)
(0.010763 0.00375494 0)
(0.0134629 0.0017459 0)
(0.000794582 0.0187922 0)
(-0.0245763 0.012125 0)
(0.00877301 -0.00246909 0)
(0.00423986 0.0114744 0)
(-0.00976031 0.00367581 0)
(0.00670407 -0.0109391 0)
(-0.00477711 -0.0062176 0)
(-0.00967925 -0.0144904 0)
(0.00343179 -0.0256181 0)
(0.0111293 -0.0214635 0)
(0.0400339 0.00177493 0)
(0.0205565 0.0192544 0)
(0.00530487 0.00267942 0)
(0.0379507 0.0098258 0)
(0.0163285 0.0252087 0)
(-0.00621815 0.0234331 0)
(-0.0275371 0.0246145 0)
(-0.064938 0.0188951 0)
(-0.0680635 0.00587398 0)
(-0.0654562 0.00173991 0)
(-0.0519543 -0.017513 0)
(0.0115148 -0.0276073 0)
(0.039318 -0.0144796 0)
(0.0357735 -0.00897741 0)
(0.0204349 0.0111926 0)
(-0.0183383 0.0221936 0)
(-0.0358734 -0.00267607 0)
(-0.0400593 -0.0167104 0)
(-0.037129 0.000572113 0)
(-0.0420305 -0.00792662 0)
(-0.0228359 -0.0378929 0)
(0.0225112 -0.0276873 0)
(0.0512708 -0.000829139 0)
(0.0542713 0.00844118 0)
(0.0513233 0.0196874 0)
(0.0314302 0.0174786 0)
(0.0240897 0.0100622 0)
(-0.00834404 0.0160633 0)
(-0.034602 0.00611747 0)
(-0.0341898 -0.00513873 0)
(-0.0238137 -0.0209113 0)
(0.0338209 -0.00596717 0)
(0.0368399 0.0100206 0)
(0.0398594 0.00735721 0)
(0.0166947 0.0215925 0)
(-0.00644427 0.00823914 0)
(0.0106809 -0.00135422 0)
(-0.0097162 0.00167981 0)
(-0.0239579 0.00392641 0)
(-0.0444381 -0.00368834 0)
(-0.0270787 -0.0308713 0)
(0.445338 -2.43505 0)
(1.33007 -2.35798 0)
(2.1883 -2.28177 0)
(3.04294 -2.24129 0)
(3.92741 -2.23084 0)
(4.84077 -2.19433 0)
(5.74219 -2.12201 0)
(6.57723 -2.08889 0)
(7.4027 -2.09965 0)
(8.26965 -2.12459 0)
(9.10254 -2.11073 0)
(9.88087 -2.09758 0)
(10.6839 -2.01805 0)
(11.4971 -1.98001 0)
(12.2782 -1.97218 0)
(13.048 -1.91936 0)
(13.7918 -1.85234 0)
(14.4986 -1.83973 0)
(15.2184 -1.72211 0)
(15.8725 -1.59695 0)
(16.4878 -1.58334 0)
(17.0873 -1.51419 0)
(17.6781 -1.40374 0)
(18.2155 -1.33352 0)
(18.7386 -1.26162 0)
(19.1852 -1.14143 0)
(19.5948 -1.01463 0)
(19.9459 -0.860035 0)
(20.2589 -0.754382 0)
(20.5845 -0.699024 0)
(20.8682 -0.629117 0)
(21.0834 -0.568931 0)
(21.3034 -0.53734 0)
(21.5123 -0.46825 0)
(21.6684 -0.350295 0)
(21.7658 -0.243625 0)
(21.8376 -0.156323 0)
(21.8942 -0.0540401 0)
(21.8646 -0.00229535 0)
(21.8662 0.0660188 0)
(21.803 0.195407 0)
(21.6895 0.288763 0)
(21.5696 0.377507 0)
(21.4097 0.441047 0)
(21.2183 0.508177 0)
(21.0256 0.595342 0)
(20.7777 0.654598 0)
(20.4849 0.663608 0)
(20.2144 0.640746 0)
(19.9536 0.659523 0)
(19.6988 0.70734 0)
(19.4369 0.759579 0)
(19.1001 0.793588 0)
(18.7784 0.796409 0)
(18.4457 0.805294 0)
(18.1348 0.833871 0)
(17.8028 0.881405 0)
(17.4093 0.920493 0)
(17.0171 0.938208 0)
(16.6364 0.936781 0)
(16.2852 0.917187 0)
(15.943 0.91931 0)
(15.5429 0.938435 0)
(15.1808 0.941403 0)
(14.8242 0.936239 0)
(14.456 0.916287 0)
(14.1157 0.895289 0)
(13.7465 0.883764 0)
(13.3841 0.872441 0)
(13.0647 0.869025 0)
(12.7259 0.854465 0)
(12.3892 0.826909 0)
(12.0549 0.804647 0)
(11.7544 0.787694 0)
(11.44 0.771942 0)
(11.1246 0.751091 0)
(10.8211 0.748491 0)
(10.5101 0.72937 0)
(10.2255 0.693683 0)
(9.97691 0.688716 0)
(9.71885 0.689991 0)
(9.43966 0.670083 0)
(9.16033 0.625077 0)
(8.93638 0.586124 0)
(8.68561 0.575492 0)
(8.43746 0.559566 0)
(8.23246 0.547741 0)
(8.02173 0.52059 0)
(7.83401 0.500709 0)
(7.65225 0.498802 0)
(7.44276 0.505241 0)
(7.22415 0.50433 0)
(7.01328 0.501708 0)
(6.81525 0.490201 0)
(6.63692 0.478843 0)
(6.45019 0.457805 0)
(6.29128 0.442808 0)
(6.1155 0.43899 0)
(5.95721 0.449103 0)
(5.76144 0.450919 0)
(5.57929 0.421478 0)
(5.4115 0.388298 0)
(5.27333 0.374102 0)
(5.12086 0.349761 0)
(5.01586 0.311322 0)
(4.91028 0.318677 0)
(4.77875 0.323077 0)
(4.64102 0.330888 0)
(4.50236 0.323851 0)
(4.37024 0.305067 0)
(4.234 0.29265 0)
(4.11504 0.281823 0)
(4.01676 0.255902 0)
(3.94234 0.262244 0)
(3.82217 0.301316 0)
(3.68774 0.313282 0)
(3.56274 0.267677 0)
(3.48186 0.231475 0)
(3.39178 0.244499 0)
(3.28604 0.233251 0)
(3.19365 0.191361 0)
(3.13245 0.151317 0)
(3.0827 0.135487 0)
(3.02963 0.165926 0)
(2.93705 0.200754 0)
(2.84346 0.178282 0)
(2.78114 0.160922 0)
(2.71774 0.177973 0)
(2.6461 0.175063 0)
(2.60482 0.180676 0)
(2.52922 0.213415 0)
(2.42969 0.20229 0)
(2.37011 0.186302 0)
(2.29547 0.184109 0)
(2.23451 0.183551 0)
(2.1679 0.184661 0)
(2.09403 0.157338 0)
(2.03346 0.104918 0)
(2.00343 0.106863 0)
(1.94554 0.140466 0)
(1.88006 0.143996 0)
(1.82864 0.143466 0)
(1.77441 0.129808 0)
(1.74688 0.112215 0)
(1.70601 0.103788 0)
(1.65336 0.0964969 0)
(1.61767 0.0803539 0)
(1.57595 0.0784058 0)
(1.5499 0.105611 0)
(1.49295 0.127145 0)
(1.43239 0.0876092 0)
(1.42004 0.0636752 0)
(1.39551 0.0597957 0)
(1.384 0.0493269 0)
(1.35742 0.0536856 0)
(1.3327 0.0583089 0)
(1.28962 0.09295 0)
(1.23043 0.0716007 0)
(1.22745 0.0452526 0)
(1.19463 0.0679356 0)
(1.15835 0.103827 0)
(1.10487 0.129838 0)
(1.05522 0.110339 0)
(1.02746 0.104306 0)
(1.00138 0.0847018 0)
(1.00006 0.0912184 0)
(0.95798 0.0619487 0)
(0.957969 0.0333353 0)
(0.931056 0.075815 0)
(0.8808 0.0634482 0)
(0.875707 0.0789909 0)
(0.842443 0.090754 0)
(0.825078 0.0796615 0)
(0.7986 0.0472583 0)
(0.818663 0.0148233 0)
(0.805492 0.0454201 0)
(0.767981 0.0612965 0)
(0.742946 0.0490107 0)
(0.703238 -0.0105178 0)
(0.711809 -0.0300621 0)
(0.703719 0.0218254 0)
(0.678683 0.0532732 0)
(0.650253 0.0639106 0)
(0.621864 0.0382448 0)
(0.604909 0.0111422 0)
(0.588564 0.0182287 0)
(0.590088 0.0137953 0)
(0.610431 0.0272667 0)
(0.597956 0.0496565 0)
(0.595835 0.0481058 0)
(0.579892 0.0855746 0)
(0.528814 0.0705662 0)
(0.524012 0.0734763 0)
(0.458999 0.0705142 0)
(0.446883 0.00136657 0)
(0.457129 0.00735253 0)
(0.436199 0.037669 0)
(0.417814 0.0205772 0)
(0.428884 -0.00041013 0)
(0.437366 0.0351083 0)
(0.413817 0.0393226 0)
(0.40197 0.0211414 0)
(0.397121 0.0379155 0)
(0.366677 0.0212118 0)
(0.355181 -0.00391285 0)
(0.373127 -0.00199773 0)
(0.383572 0.0194219 0)
(0.37635 0.0449367 0)
(0.355217 0.0491469 0)
(0.331384 0.0380872 0)
(0.33628 0.00916157 0)
(0.3384 -0.00345602 0)
(0.324514 -0.00710525 0)
(0.331895 -0.00759331 0)
(0.332651 0.000903085 0)
(0.347242 0.019234 0)
(0.338337 0.0548613 0)
(0.306992 0.0666293 0)
(0.274794 0.0512202 0)
(0.262545 0.0268934 0)
(0.254058 -0.00142425 0)
(0.251129 0.0118185 0)
(0.237012 0.0260811 0)
(0.230512 0.011223 0)
(0.218754 0.0160766 0)