/*--------------------------------*- C++ -*----------------------------------*\
| =========                 |                                                 |
| \\      /  F ield         | OpenFOAM: The Open Source CFD Toolbox           |
|  \\    /   O peration     | Version:  v2012                                 |
|   \\  /    A nd           | Website:  www.openfoam.com                      |
|    \\/     M anipulation  |                                                 |
\*---------------------------------------------------------------------------*/
FoamFile
{
    version     2.0;
    format      ascii;
    class       volScalarField;
    location    "0";
    object      ph_rgh;
}
// * * * * * * * * * * * * * * * * * * * * * * * * * * * * * * * * * * * * * //

dimensions      [1 -1 -2 0 0 0 0];


internalField   nonuniform List<scalar> 
65536
(
39807.3
39807.1
39806.8
39806.3
39805.7
39804.9
39803.9
39802.8
39801.5
39800.1
39798.5
39796.8
39794.9
39792.9
39790.7
39788.4
39786
39783.4
39780.7
39777.9
39775
39771.9
39768.8
39765.5
39762.1
39758.7
39755.1
39751.5
39747.7
39743.9
39740
39736.1
39732
39728
39723.8
39719.6
39715.4
39711.1
39706.8
39702.4
39698.1
39693.7
39689.2
39684.8
39680.4
39675.9
39671.5
39667
39662.6
39658.1
39653.7
39649.3
39644.9
39640.5
39636.2
39631.9
39627.6
39623.4
39619.2
39615
39610.9
39606.8
39602.7
39598.8
39594.8
39590.9
39587.1
39583.3
39579.5
39575.9
39572.2
39568.6
39565.1
39561.7
39558.3
39554.9
39551.6
39548.4
39545.2
39542.1
39539.1
39536.1
39533.1
39530.3
39527.4
39524.7
39522
39519.3
39516.7
39514.2
39511.7
39509.2
39506.9
39504.5
39502.2
39500
39497.8
39495.7
39493.6
39491.6
39489.6
39487.6
39485.7
39483.9
39482.1
39480.3
39478.6
39476.9
39475.2
39473.6
39472.1
39470.5
39469
39467.6
39466.2
39464.8
39463.4
39462.1
39460.8
39459.5
39458.3
39457.1
39456
39454.8
39453.7
39452.6
39451.6
39450.5
39449.5
39448.6
39447.6
39446.7
39445.8
39444.9
39444
39443.2
39442.3
39441.5
39440.8
39440
39439.3
39438.5
39437.8
39437.1
39436.5
39435.8
39435.2
39434.6
39434
39433.4
39432.8
39432.2
39431.7
39431.1
39430.6
39430.1
39429.6
39429.1
39428.7
39428.2
39427.8
39427.3
39426.9
39426.5
39426.1
39425.7
39425.3
39424.9
39424.6
39424.2
39423.9
39423.5
39423.2
39422.9
39422.6
39422.3
39422
39421.7
39421.4
39421.1
39420.9
39420.6
39420.4
39420.1
39419.9
39419.6
39419.4
39419.2
39419
39418.7
39418.5
39418.3
39418.1
39417.9
39417.8
39417.6
39417.4
39417.2
39417
39416.9
39416.7
39416.6
39416.4
39416.3
39416.1
39416
39415.8
39415.7
39415.6
39415.4
39415.3
39415.2
39415.1
39415
39414.8
39414.7
39414.6
39414.5
39414.4
39414.3
39414.2
39414.1
39414
39413.9
39413.9
39413.8
39413.7
39413.6
39413.5
39413.5
39413.4
39413.3
39413.2
39413.2
39413.1
39413
39413
39412.9
39412.8
39412.8
39412.7
39412.7
39412.6
39412.6
39412.5
39412.5
39412.4
39412.4
39412.3
39412.3
39412.2
39412.2
39412.1
39412.1
39412
39412
39412
39411.9
39411.9
39411.9
39411.8
39411.8
39411.8
39411.7
39411.7
39411.7
39411.6
39411.6
39411.6
39411.5
39411.5
39411.5
39411.5
39411.4
39411.4
39411.4
39411.4
39411.3
39411.3
39411.3
39411.3
39411.3
39411.2
39411.2
39411.2
39411.2
39411.2
39411.1
39411.1
39411.1
39411.1
39411.1
39411.1
39411
39411
39411
39411
39411
39411
39411
39411
39410.9
39410.9
39410.9
39410.9
39410.9
39410.9
39410.9
39410.9
39410.8
39410.8
39410.8
39410.8
39410.8
39410.8
39410.8
39410.8
39410.8
39410.8
39410.8
39410.8
39410.7
39410.7
39410.7
39410.7
39410.7
39410.7
39410.7
39410.7
39410.7
39410.7
39410.7
39410.7
39410.7
39410.7
39410.7
39410.7
39410.6
39410.6
39410.6
39410.6
39410.6
39410.6
39410.6
39410.6
39410.6
39410.6
39410.6
39410.6
39410.6
39410.6
39410.6
39410.6
39410.6
39410.6
39410.6
39410.6
39410.6
39410.6
39410.6
39410.6
39410.6
39410.6
39410.6
39410.6
39410.6
39410.5
39410.5
39410.5
39410.5
39410.5
39410.5
39410.5
39410.5
39410.5
39410.5
39410.5
39410.5
39410.5
39410.5
39410.5
39410.5
39410.5
39410.5
39410.5
39410.5
39410.5
39410.5
39410.5
39410.5
39410.5
39410.5
39410.5
39410.5
39410.5
39410.5
39410.5
39410.5
39410.5
39410.5
39410.5
39410.5
39410.5
39410.5
39410.5
39410.5
39410.5
39410.5
39410.5
39410.5
39410.5
39410.5
39410.5
39410.5
39410.5
39410.5
39410.5
39410.5
39410.5
39410.5
39410.5
39410.5
39410.5
39410.5
39410.5
39410.5
39410.5
39410.5
39410.5
39410.5
39410.5
39410.5
39410.5
39410.5
39410.5
39410.5
39410.5
39410.5
39410.5
39410.5
39410.5
39410.5
39410.5
39410.5
39410.5
39410.5
39410.5
39410.5
39410.5
39410.5
39410.5
39410.5
39410.5
39410.5
39410.5
39410.5
39410.5
39410.5
39410.5
39410.5
39410.5
39410.5
39410.5
39410.5
39410.5
39410.5
39410.5
39410.5
39410.5
39410.5
39410.5
39410.5
39410.5
39410.5
39410.5
39410.5
39410.5
39410.5
39410.5
39410.5
39410.5
39410.5
39410.5
39410.5
39410.5
39410.5
39410.5
39410.5
39410.5
39410.5
39410.5
39410.5
39410.5
39410.5
39410.5
39410.5
39410.5
39410.5
39410.5
39410.5
39410.5
39410.5
39410.5
39410.5
39410.5
39410.5
39410.5
39410.5
39410.5
39410.5
39410.5
39410.5
39804.2
39804.1
39803.7
39803.3
39802.6
39801.8
39800.8
39799.7
39798.5
39797
39795.4
39793.7
39791.8
39789.8
39787.6
39785.3
39782.9
39780.3
39777.7
39774.8
39771.9
39768.9
39765.7
39762.4
39759
39755.6
39752
39748.3
39744.6
39740.8
39736.9
39732.9
39728.9
39724.8
39720.7
39716.5
39712.2
39707.9
39703.6
39699.3
39694.9
39690.5
39686
39681.6
39677.2
39672.7
39668.2
39663.8
39659.3
39654.9
39650.5
39646.1
39641.7
39637.3
39633
39628.7
39624.4
39620.1
39615.9
39611.8
39607.6
39603.5
39599.5
39595.5
39591.6
39587.7
39583.8
39580
39576.3
39572.6
39569
39565.4
39561.9
39558.4
39555
39551.7
39548.4
39545.2
39542
39538.9
39535.8
39532.8
39529.9
39527
39524.2
39521.4
39518.7
39516.1
39513.5
39510.9
39508.4
39506
39503.6
39501.3
39499
39496.8
39494.6
39492.4
39490.4
39488.3
39486.3
39484.4
39482.5
39480.6
39478.8
39477.1
39475.3
39473.7
39472
39470.4
39468.8
39467.3
39465.8
39464.3
39462.9
39461.5
39460.2
39458.9
39457.6
39456.3
39455.1
39453.9
39452.7
39451.6
39450.5
39449.4
39448.3
39447.3
39446.3
39445.3
39444.4
39443.4
39442.5
39441.6
39440.8
39439.9
39439.1
39438.3
39437.5
39436.8
39436
39435.3
39434.6
39433.9
39433.3
39432.6
39432
39431.3
39430.7
39430.1
39429.6
39429
39428.5
39427.9
39427.4
39426.9
39426.4
39425.9
39425.5
39425
39424.6
39424.1
39423.7
39423.3
39422.9
39422.5
39422.1
39421.7
39421.4
39421
39420.7
39420.3
39420
39419.7
39419.4
39419.1
39418.8
39418.5
39418.2
39417.9
39417.7
39417.4
39417.1
39416.9
39416.7
39416.4
39416.2
39416
39415.7
39415.5
39415.3
39415.1
39414.9
39414.7
39414.5
39414.4
39414.2
39414
39413.8
39413.7
39413.5
39413.4
39413.2
39413.1
39412.9
39412.8
39412.6
39412.5
39412.4
39412.2
39412.1
39412
39411.9
39411.8
39411.6
39411.5
39411.4
39411.3
39411.2
39411.1
39411
39410.9
39410.8
39410.7
39410.7
39410.6
39410.5
39410.4
39410.3
39410.3
39410.2
39410.1
39410
39410
39409.9
39409.8
39409.8
39409.7
39409.6
39409.6
39409.5
39409.5
39409.4
39409.4
39409.3
39409.3
39409.2
39409.2
39409.1
39409.1
39409
39409
39408.9
39408.9
39408.8
39408.8
39408.8
39408.7
39408.7
39408.7
39408.6
39408.6
39408.6
39408.5
39408.5
39408.5
39408.4
39408.4
39408.4
39408.3
39408.3
39408.3
39408.3
39408.2
39408.2
39408.2
39408.2
39408.1
39408.1
39408.1
39408.1
39408.1
39408
39408
39408
39408
39408
39407.9
39407.9
39407.9
39407.9
39407.9
39407.9
39407.8
39407.8
39407.8
39407.8
39407.8
39407.8
39407.8
39407.8
39407.7
39407.7
39407.7
39407.7
39407.7
39407.7
39407.7
39407.7
39407.7
39407.6
39407.6
39407.6
39407.6
39407.6
39407.6
39407.6
39407.6
39407.6
39407.6
39407.6
39407.5
39407.5
39407.5
39407.5
39407.5
39407.5
39407.5
39407.5
39407.5
39407.5
39407.5
39407.5
39407.5
39407.5
39407.5
39407.5
39407.5
39407.4
39407.4
39407.4
39407.4
39407.4
39407.4
39407.4
39407.4
39407.4
39407.4
39407.4
39407.4
39407.4
39407.4
39407.4
39407.4
39407.4
39407.4
39407.4
39407.4
39407.4
39407.4
39407.4
39407.4
39407.4
39407.4
39407.4
39407.4
39407.4
39407.3
39407.3
39407.3
39407.3
39407.3
39407.3
39407.3
39407.3
39407.3
39407.3
39407.3
39407.3
39407.3
39407.3
39407.3
39407.3
39407.3
39407.3
39407.3
39407.3
39407.3
39407.3
39407.3
39407.3
39407.3
39407.3
39407.3
39407.3
39407.3
39407.3
39407.3
39407.3
39407.3
39407.3
39407.3
39407.3
39407.3
39407.3
39407.3
39407.3
39407.3
39407.3
39407.3
39407.3
39407.3
39407.3
39407.3
39407.3
39407.3
39407.3
39407.3
39407.3
39407.3
39407.3
39407.3
39407.3
39407.3
39407.3
39407.3
39407.3
39407.3
39407.3
39407.3
39407.3
39407.3
39407.3
39407.3
39407.3
39407.3
39407.3
39407.3
39407.3
39407.3
39407.3
39407.3
39407.3
39407.3
39407.3
39407.3
39407.3
39407.3
39407.3
39407.3
39407.3
39407.3
39407.3
39407.3
39407.3
39407.3
39407.3
39407.3
39407.3
39407.3
39407.3
39407.3
39407.3
39407.3
39407.3
39407.3
39407.3
39407.3
39407.3
39407.3
39407.3
39407.3
39407.3
39407.3
39407.3
39407.3
39407.3
39407.3
39407.3
39407.3
39407.3
39407.3
39407.3
39407.3
39407.3
39407.3
39407.3
39407.3
39407.3
39407.3
39407.3
39407.3
39407.3
39407.3
39407.3
39407.3
39407.3
39407.3
39407.3
39407.3
39407.3
39407.3
39407.3
39407.3
39407.3
39407.3
39407.3
39407.3
39407.3
39407.3
39407.3
39407.3
39798.2
39798
39797.7
39797.2
39796.5
39795.7
39794.8
39793.6
39792.4
39790.9
39789.3
39787.6
39785.7
39783.7
39781.5
39779.2
39776.8
39774.2
39771.5
39768.7
39765.7
39762.7
39759.5
39756.2
39752.8
39749.4
39745.8
39742.1
39738.4
39734.5
39730.6
39726.7
39722.6
39718.5
39714.4
39710.2
39705.9
39701.6
39697.3
39692.9
39688.5
39684.1
39679.7
39675.2
39670.8
39666.3
39661.8
39657.4
39652.9
39648.5
39644
39639.6
39635.2
39630.9
39626.5
39622.2
39617.9
39613.7
39609.4
39605.3
39601.1
39597
39593
39589
39585.1
39581.2
39577.3
39573.5
39569.8
39566.1
39562.5
39558.9
39555.4
39551.9
39548.5
39545.2
39541.9
39538.6
39535.5
39532.4
39529.3
39526.3
39523.4
39520.5
39517.7
39514.9
39512.2
39509.5
39507
39504.4
39501.9
39499.5
39497.1
39494.8
39492.5
39490.3
39488.1
39486
39483.9
39481.8
39479.9
39477.9
39476
39474.2
39472.4
39470.6
39468.9
39467.2
39465.5
39463.9
39462.4
39460.8
39459.3
39457.9
39456.5
39455.1
39453.7
39452.4
39451.1
39449.9
39448.6
39447.4
39446.3
39445.1
39444
39443
39441.9
39440.9
39439.9
39438.9
39437.9
39437
39436.1
39435.2
39434.4
39433.5
39432.7
39431.9
39431.1
39430.4
39429.6
39428.9
39428.2
39427.5
39426.8
39426.2
39425.5
39424.9
39424.3
39423.7
39423.2
39422.6
39422.1
39421.5
39421
39420.5
39420
39419.5
39419.1
39418.6
39418.2
39417.7
39417.3
39416.9
39416.5
39416.1
39415.7
39415.3
39415
39414.6
39414.3
39413.9
39413.6
39413.3
39413
39412.7
39412.4
39412.1
39411.8
39411.5
39411.3
39411
39410.7
39410.5
39410.3
39410
39409.8
39409.6
39409.4
39409.1
39408.9
39408.7
39408.5
39408.3
39408.2
39408
39407.8
39407.6
39407.4
39407.3
39407.1
39407
39406.8
39406.7
39406.5
39406.4
39406.2
39406.1
39406
39405.8
39405.7
39405.6
39405.5
39405.4
39405.3
39405.1
39405
39404.9
39404.8
39404.7
39404.6
39404.5
39404.4
39404.4
39404.3
39404.2
39404.1
39404
39403.9
39403.9
39403.8
39403.7
39403.6
39403.6
39403.5
39403.4
39403.4
39403.3
39403.3
39403.2
39403.1
39403.1
39403
39403
39402.9
39402.9
39402.8
39402.8
39402.7
39402.7
39402.6
39402.6
39402.5
39402.5
39402.5
39402.4
39402.4
39402.3
39402.3
39402.3
39402.2
39402.2
39402.2
39402.1
39402.1
39402.1
39402
39402
39402
39402
39401.9
39401.9
39401.9
39401.9
39401.8
39401.8
39401.8
39401.8
39401.7
39401.7
39401.7
39401.7
39401.7
39401.6
39401.6
39401.6
39401.6
39401.6
39401.5
39401.5
39401.5
39401.5
39401.5
39401.5
39401.4
39401.4
39401.4
39401.4
39401.4
39401.4
39401.4
39401.4
39401.3
39401.3
39401.3
39401.3
39401.3
39401.3
39401.3
39401.3
39401.3
39401.2
39401.2
39401.2
39401.2
39401.2
39401.2
39401.2
39401.2
39401.2
39401.2
39401.2
39401.2
39401.1
39401.1
39401.1
39401.1
39401.1
39401.1
39401.1
39401.1
39401.1
39401.1
39401.1
39401.1
39401.1
39401.1
39401.1
39401.1
39401.1
39401.1
39401
39401
39401
39401
39401
39401
39401
39401
39401
39401
39401
39401
39401
39401
39401
39401
39401
39401
39401
39401
39401
39401
39401
39401
39401
39401
39401
39401
39401
39401
39401
39401
39400.9
39400.9
39400.9
39400.9
39400.9
39400.9
39400.9
39400.9
39400.9
39400.9
39400.9
39400.9
39400.9
39400.9
39400.9
39400.9
39400.9
39400.9
39400.9
39400.9
39400.9
39400.9
39400.9
39400.9
39400.9
39400.9
39400.9
39400.9
39400.9
39400.9
39400.9
39400.9
39400.9
39400.9
39400.9
39400.9
39400.9
39400.9
39400.9
39400.9
39400.9
39400.9
39400.9
39400.9
39400.9
39400.9
39400.9
39400.9
39400.9
39400.9
39400.9
39400.9
39400.9
39400.9
39400.9
39400.9
39400.9
39400.9
39400.9
39400.9
39400.9
39400.9
39400.9
39400.9
39400.9
39400.9
39400.9
39400.9
39400.9
39400.9
39400.9
39400.9
39400.9
39400.9
39400.9
39400.9
39400.9
39400.9
39400.9
39400.9
39400.9
39400.9
39400.9
39400.9
39400.9
39400.9
39400.9
39400.9
39400.9
39400.9
39400.9
39400.9
39400.9
39400.9
39400.9
39400.9
39400.9
39400.9
39400.9
39400.9
39400.9
39400.9
39400.9
39400.9
39400.9
39400.9
39400.9
39400.9
39400.9
39400.9
39400.9
39400.9
39400.9
39400.9
39400.9
39400.9
39400.9
39400.9
39400.9
39400.9
39400.9
39400.9
39400.9
39400.9
39400.9
39400.9
39400.9
39400.9
39400.9
39400.9
39400.9
39400.9
39400.9
39400.9
39400.9
39400.9
39400.9
39400.9
39400.9
39789.1
39788.9
39788.6
39788.1
39787.4
39786.6
39785.7
39784.5
39783.2
39781.8
39780.2
39778.5
39776.6
39774.5
39772.4
39770.1
39767.6
39765
39762.3
39759.5
39756.5
39753.4
39750.3
39747
39743.6
39740.1
39736.5
39732.8
39729
39725.2
39721.3
39717.3
39713.2
39709.1
39704.9
39700.7
39696.5
39692.1
39687.8
39683.4
39679
39674.6
39670.1
39665.7
39661.2
39656.7
39652.3
39647.8
39643.3
39638.9
39634.4
39630
39625.6
39621.2
39616.9
39612.5
39608.2
39604
39599.8
39595.6
39591.4
39587.4
39583.3
39579.3
39575.3
39571.4
39567.6
39563.8
39560.1
39556.4
39552.7
39549.2
39545.6
39542.2
39538.8
39535.4
39532.1
39528.9
39525.7
39522.6
39519.6
39516.6
39513.6
39510.8
39507.9
39505.2
39502.5
39499.8
39497.2
39494.7
39492.2
39489.8
39487.4
39485.1
39482.8
39480.6
39478.4
39476.3
39474.2
39472.1
39470.2
39468.2
39466.3
39464.5
39462.7
39460.9
39459.2
39457.5
39455.9
39454.3
39452.7
39451.2
39449.7
39448.2
39446.8
39445.4
39444.1
39442.8
39441.5
39440.2
39439
39437.8
39436.6
39435.5
39434.4
39433.3
39432.3
39431.2
39430.2
39429.3
39428.3
39427.4
39426.5
39425.6
39424.7
39423.9
39423.1
39422.3
39421.5
39420.7
39420
39419.3
39418.6
39417.9
39417.2
39416.6
39415.9
39415.3
39414.7
39414.1
39413.6
39413
39412.5
39411.9
39411.4
39410.9
39410.4
39409.9
39409.5
39409
39408.6
39408.1
39407.7
39407.3
39406.9
39406.5
39406.1
39405.8
39405.4
39405
39404.7
39404.4
39404
39403.7
39403.4
39403.1
39402.8
39402.5
39402.2
39402
39401.7
39401.4
39401.2
39400.9
39400.7
39400.5
39400.2
39400
39399.8
39399.6
39399.4
39399.2
39399
39398.8
39398.6
39398.4
39398.2
39398.1
39397.9
39397.7
39397.6
39397.4
39397.3
39397.1
39397
39396.8
39396.7
39396.5
39396.4
39396.3
39396.2
39396
39395.9
39395.8
39395.7
39395.6
39395.5
39395.4
39395.3
39395.2
39395.1
39395
39394.9
39394.8
39394.7
39394.6
39394.5
39394.5
39394.4
39394.3
39394.2
39394.2
39394.1
39394
39394
39393.9
39393.8
39393.8
39393.7
39393.6
39393.6
39393.5
39393.5
39393.4
39393.4
39393.3
39393.3
39393.2
39393.2
39393.1
39393.1
39393
39393
39392.9
39392.9
39392.9
39392.8
39392.8
39392.8
39392.7
39392.7
39392.7
39392.6
39392.6
39392.6
39392.5
39392.5
39392.5
39392.4
39392.4
39392.4
39392.4
39392.3
39392.3
39392.3
39392.3
39392.2
39392.2
39392.2
39392.2
39392.1
39392.1
39392.1
39392.1
39392.1
39392
39392
39392
39392
39392
39392
39391.9
39391.9
39391.9
39391.9
39391.9
39391.9
39391.9
39391.8
39391.8
39391.8
39391.8
39391.8
39391.8
39391.8
39391.8
39391.7
39391.7
39391.7
39391.7
39391.7
39391.7
39391.7
39391.7
39391.7
39391.7
39391.7
39391.6
39391.6
39391.6
39391.6
39391.6
39391.6
39391.6
39391.6
39391.6
39391.6
39391.6
39391.6
39391.6
39391.6
39391.5
39391.5
39391.5
39391.5
39391.5
39391.5
39391.5
39391.5
39391.5
39391.5
39391.5
39391.5
39391.5
39391.5
39391.5
39391.5
39391.5
39391.5
39391.5
39391.5
39391.5
39391.5
39391.5
39391.4
39391.4
39391.4
39391.4
39391.4
39391.4
39391.4
39391.4
39391.4
39391.4
39391.4
39391.4
39391.4
39391.4
39391.4
39391.4
39391.4
39391.4
39391.4
39391.4
39391.4
39391.4
39391.4
39391.4
39391.4
39391.4
39391.4
39391.4
39391.4
39391.4
39391.4
39391.4
39391.4
39391.4
39391.4
39391.4
39391.4
39391.4
39391.4
39391.4
39391.4
39391.4
39391.4
39391.4
39391.4
39391.4
39391.4
39391.4
39391.4
39391.4
39391.4
39391.4
39391.4
39391.4
39391.4
39391.4
39391.4
39391.4
39391.4
39391.4
39391.4
39391.3
39391.3
39391.3
39391.3
39391.3
39391.3
39391.3
39391.3
39391.3
39391.3
39391.3
39391.3
39391.3
39391.3
39391.3
39391.3
39391.3
39391.3
39391.3
39391.3
39391.3
39391.3
39391.3
39391.3
39391.3
39391.3
39391.3
39391.3
39391.3
39391.3
39391.3
39391.3
39391.3
39391.3
39391.3
39391.3
39391.3
39391.3
39391.3
39391.3
39391.3
39391.3
39391.3
39391.3
39391.3
39391.3
39391.3
39391.3
39391.3
39391.3
39391.3
39391.3
39391.3
39391.3
39391.3
39391.3
39391.3
39391.3
39391.3
39391.3
39391.3
39391.3
39391.3
39391.3
39391.3
39391.3
39391.3
39391.3
39391.3
39391.3
39391.3
39391.3
39391.3
39391.3
39391.3
39391.3
39391.3
39391.3
39391.3
39391.3
39391.3
39391.3
39391.3
39391.3
39391.3
39391.3
39391.3
39391.3
39391.3
39391.3
39391.3
39391.3
39391.3
39391.3
39391.3
39391.3
39391.3
39777
39776.8
39776.5
39776
39775.4
39774.5
39773.6
39772.4
39771.1
39769.7
39768.1
39766.3
39764.4
39762.4
39760.2
39757.9
39755.4
39752.8
39750.1
39747.2
39744.2
39741.2
39737.9
39734.6
39731.2
39727.7
39724.1
39720.4
39716.6
39712.8
39708.8
39704.8
39700.7
39696.6
39692.4
39688.2
39683.9
39679.6
39675.2
39670.8
39666.4
39661.9
39657.5
39653
39648.5
39644
39639.5
39635
39630.6
39626.1
39621.6
39617.2
39612.8
39608.4
39604
39599.7
39595.4
39591.1
39586.9
39582.7
39578.5
39574.4
39570.4
39566.4
39562.4
39558.5
39554.7
39550.8
39547.1
39543.4
39539.8
39536.2
39532.7
39529.2
39525.8
39522.5
39519.2
39515.9
39512.8
39509.7
39506.6
39503.6
39500.7
39497.8
39495
39492.2
39489.5
39486.9
39484.3
39481.7
39479.3
39476.8
39474.5
39472.1
39469.9
39467.6
39465.5
39463.3
39461.3
39459.2
39457.3
39455.3
39453.4
39451.6
39449.8
39448
39446.3
39444.6
39443
39441.4
39439.8
39438.3
39436.8
39435.4
39434
39432.6
39431.2
39429.9
39428.6
39427.4
39426.2
39425
39423.8
39422.7
39421.6
39420.5
39419.4
39418.4
39417.4
39416.5
39415.5
39414.6
39413.7
39412.8
39411.9
39411.1
39410.3
39409.5
39408.7
39408
39407.2
39406.5
39405.8
39405.1
39404.5
39403.8
39403.2
39402.6
39402
39401.4
39400.8
39400.2
39399.7
39399.2
39398.6
39398.1
39397.7
39397.2
39396.7
39396.3
39395.8
39395.4
39395
39394.5
39394.1
39393.8
39393.4
39393
39392.6
39392.3
39391.9
39391.6
39391.3
39391
39390.7
39390.4
39390.1
39389.8
39389.5
39389.2
39389
39388.7
39388.4
39388.2
39388
39387.7
39387.5
39387.3
39387.1
39386.8
39386.6
39386.4
39386.2
39386
39385.9
39385.7
39385.5
39385.3
39385.2
39385
39384.8
39384.7
39384.5
39384.4
39384.2
39384.1
39384
39383.8
39383.7
39383.6
39383.4
39383.3
39383.2
39383.1
39383
39382.9
39382.8
39382.7
39382.6
39382.5
39382.4
39382.3
39382.2
39382.1
39382
39381.9
39381.8
39381.7
39381.7
39381.6
39381.5
39381.4
39381.4
39381.3
39381.2
39381.2
39381.1
39381
39381
39380.9
39380.9
39380.8
39380.8
39380.7
39380.7
39380.6
39380.5
39380.5
39380.5
39380.4
39380.4
39380.3
39380.3
39380.2
39380.2
39380.2
39380.1
39380.1
39380
39380
39380
39379.9
39379.9
39379.9
39379.8
39379.8
39379.8
39379.7
39379.7
39379.7
39379.7
39379.6
39379.6
39379.6
39379.6
39379.5
39379.5
39379.5
39379.5
39379.5
39379.4
39379.4
39379.4
39379.4
39379.4
39379.3
39379.3
39379.3
39379.3
39379.3
39379.2
39379.2
39379.2
39379.2
39379.2
39379.2
39379.2
39379.1
39379.1
39379.1
39379.1
39379.1
39379.1
39379.1
39379.1
39379
39379
39379
39379
39379
39379
39379
39379
39379
39379
39378.9
39378.9
39378.9
39378.9
39378.9
39378.9
39378.9
39378.9
39378.9
39378.9
39378.9
39378.9
39378.9
39378.9
39378.8
39378.8
39378.8
39378.8
39378.8
39378.8
39378.8
39378.8
39378.8
39378.8
39378.8
39378.8
39378.8
39378.8
39378.8
39378.8
39378.8
39378.8
39378.8
39378.8
39378.8
39378.8
39378.7
39378.7
39378.7
39378.7
39378.7
39378.7
39378.7
39378.7
39378.7
39378.7
39378.7
39378.7
39378.7
39378.7
39378.7
39378.7
39378.7
39378.7
39378.7
39378.7
39378.7
39378.7
39378.7
39378.7
39378.7
39378.7
39378.7
39378.7
39378.7
39378.7
39378.7
39378.7
39378.7
39378.7
39378.7
39378.7
39378.7
39378.7
39378.7
39378.7
39378.7
39378.7
39378.7
39378.7
39378.7
39378.7
39378.7
39378.7
39378.7
39378.7
39378.7
39378.6
39378.6
39378.6
39378.6
39378.6
39378.6
39378.6
39378.6
39378.6
39378.6
39378.6
39378.6
39378.6
39378.6
39378.6
39378.6
39378.6
39378.6
39378.6
39378.6
39378.6
39378.6
39378.6
39378.6
39378.6
39378.6
39378.6
39378.6
39378.6
39378.6
39378.6
39378.6
39378.6
39378.6
39378.6
39378.6
39378.6
39378.6
39378.6
39378.6
39378.6
39378.6
39378.6
39378.6
39378.6
39378.6
39378.6
39378.6
39378.6
39378.6
39378.6
39378.6
39378.6
39378.6
39378.6
39378.6
39378.6
39378.6
39378.6
39378.6
39378.6
39378.6
39378.6
39378.6
39378.6
39378.6
39378.6
39378.6
39378.6
39378.6
39378.6
39378.6
39378.6
39378.6
39378.6
39378.6
39378.6
39378.6
39378.6
39378.6
39378.6
39378.6
39378.6
39378.6
39378.6
39378.6
39378.6
39378.6
39378.6
39378.6
39378.6
39378.6
39378.6
39378.6
39378.6
39378.6
39378.6
39378.6
39378.6
39378.6
39378.6
39378.6
39378.6
39378.6
39378.6
39378.6
39378.6
39378.6
39378.6
39378.6
39761.9
39761.8
39761.4
39761
39760.3
39759.5
39758.5
39757.3
39756
39754.6
39753
39751.2
39749.3
39747.2
39745
39742.7
39740.2
39737.6
39734.8
39732
39729
39725.8
39722.6
39719.3
39715.9
39712.3
39708.7
39705
39701.2
39697.3
39693.3
39689.3
39685.2
39681
39676.8
39672.5
39668.2
39663.9
39659.5
39655.1
39650.6
39646.2
39641.7
39637.2
39632.7
39628.2
39623.6
39619.1
39614.6
39610.2
39605.7
39601.2
39596.8
39592.4
39588
39583.7
39579.3
39575.1
39570.8
39566.6
39562.5
39558.3
39554.3
39550.3
39546.3
39542.4
39538.5
39534.7
39531
39527.3
39523.6
39520
39516.5
39513.1
39509.7
39506.3
39503
39499.8
39496.6
39493.5
39490.5
39487.5
39484.5
39481.7
39478.9
39476.1
39473.4
39470.7
39468.2
39465.6
39463.1
39460.7
39458.3
39456
39453.8
39451.5
39449.4
39447.2
39445.2
39443.2
39441.2
39439.2
39437.4
39435.5
39433.7
39432
39430.3
39428.6
39426.9
39425.3
39423.8
39422.3
39420.8
39419.3
39417.9
39416.6
39415.2
39413.9
39412.6
39411.4
39410.2
39409
39407.8
39406.7
39405.6
39404.5
39403.5
39402.5
39401.5
39400.5
39399.5
39398.6
39397.7
39396.8
39396
39395.2
39394.3
39393.5
39392.8
39392
39391.3
39390.6
39389.9
39389.2
39388.5
39387.9
39387.2
39386.6
39386
39385.5
39384.9
39384.3
39383.8
39383.3
39382.7
39382.2
39381.8
39381.3
39380.8
39380.4
39379.9
39379.5
39379.1
39378.7
39378.3
39377.9
39377.5
39377.1
39376.8
39376.4
39376.1
39375.7
39375.4
39375.1
39374.8
39374.5
39374.2
39373.9
39373.6
39373.3
39373.1
39372.8
39372.6
39372.3
39372.1
39371.9
39371.6
39371.4
39371.2
39371
39370.8
39370.6
39370.4
39370.2
39370
39369.8
39369.6
39369.5
39369.3
39369.1
39369
39368.8
39368.7
39368.5
39368.4
39368.2
39368.1
39368
39367.8
39367.7
39367.6
39367.5
39367.3
39367.2
39367.1
39367
39366.9
39366.8
39366.7
39366.6
39366.5
39366.4
39366.3
39366.2
39366.1
39366.1
39366
39365.9
39365.8
39365.7
39365.7
39365.6
39365.5
39365.5
39365.4
39365.3
39365.3
39365.2
39365.1
39365.1
39365
39365
39364.9
39364.9
39364.8
39364.8
39364.7
39364.7
39364.6
39364.6
39364.5
39364.5
39364.4
39364.4
39364.4
39364.3
39364.3
39364.2
39364.2
39364.2
39364.1
39364.1
39364.1
39364
39364
39364
39363.9
39363.9
39363.9
39363.9
39363.8
39363.8
39363.8
39363.7
39363.7
39363.7
39363.7
39363.7
39363.6
39363.6
39363.6
39363.6
39363.6
39363.5
39363.5
39363.5
39363.5
39363.5
39363.4
39363.4
39363.4
39363.4
39363.4
39363.4
39363.3
39363.3
39363.3
39363.3
39363.3
39363.3
39363.3
39363.3
39363.2
39363.2
39363.2
39363.2
39363.2
39363.2
39363.2
39363.2
39363.2
39363.1
39363.1
39363.1
39363.1
39363.1
39363.1
39363.1
39363.1
39363.1
39363.1
39363.1
39363.1
39363.1
39363
39363
39363
39363
39363
39363
39363
39363
39363
39363
39363
39363
39363
39363
39363
39363
39363
39363
39362.9
39362.9
39362.9
39362.9
39362.9
39362.9
39362.9
39362.9
39362.9
39362.9
39362.9
39362.9
39362.9
39362.9
39362.9
39362.9
39362.9
39362.9
39362.9
39362.9
39362.9
39362.9
39362.9
39362.9
39362.9
39362.9
39362.9
39362.9
39362.9
39362.9
39362.9
39362.9
39362.9
39362.8
39362.8
39362.8
39362.8
39362.8
39362.8
39362.8
39362.8
39362.8
39362.8
39362.8
39362.8
39362.8
39362.8
39362.8
39362.8
39362.8
39362.8
39362.8
39362.8
39362.8
39362.8
39362.8
39362.8
39362.8
39362.8
39362.8
39362.8
39362.8
39362.8
39362.8
39362.8
39362.8
39362.8
39362.8
39362.8
39362.8
39362.8
39362.8
39362.8
39362.8
39362.8
39362.8
39362.8
39362.8
39362.8
39362.8
39362.8
39362.8
39362.8
39362.8
39362.8
39362.8
39362.8
39362.8
39362.8
39362.8
39362.8
39362.8
39362.8
39362.8
39362.8
39362.8
39362.8
39362.8
39362.8
39362.8
39362.8
39362.8
39362.8
39362.8
39362.8
39362.8
39362.8
39362.8
39362.8
39362.8
39362.8
39362.8
39362.8
39362.8
39362.8
39362.8
39362.8
39362.8
39362.8
39362.8
39362.8
39362.8
39362.8
39362.8
39362.8
39362.8
39362.8
39362.8
39362.8
39362.8
39362.8
39362.8
39362.8
39362.8
39362.8
39362.8
39362.8
39362.8
39362.8
39362.8
39362.8
39362.8
39362.8
39362.8
39362.8
39362.8
39362.8
39362.8
39362.8
39362.8
39362.8
39362.8
39362.8
39362.8
39362.8
39362.8
39362.8
39362.8
39362.8
39362.8
39362.8
39362.8
39362.8
39362.8
39362.8
39362.8
39362.8
39362.8
39362.8
39362.8
39743.9
39743.8
39743.4
39742.9
39742.3
39741.4
39740.4
39739.3
39738
39736.5
39734.9
39733.1
39731.2
39729.1
39726.8
39724.5
39722
39719.3
39716.6
39713.7
39710.7
39707.5
39704.3
39700.9
39697.4
39693.9
39690.2
39686.5
39682.6
39678.7
39674.7
39670.7
39666.5
39662.3
39658.1
39653.8
39649.5
39645.1
39640.7
39636.2
39631.8
39627.3
39622.7
39618.2
39613.7
39609.2
39604.6
39600.1
39595.6
39591.1
39586.6
39582.1
39577.6
39573.2
39568.8
39564.4
39560.1
39555.8
39551.6
39547.4
39543.2
39539.1
39535
39531
39527
39523.1
39519.2
39515.4
39511.6
39507.9
39504.3
39500.7
39497.2
39493.7
39490.3
39487
39483.7
39480.4
39477.3
39474.2
39471.1
39468.1
39465.2
39462.3
39459.5
39456.8
39454.1
39451.4
39448.8
39446.3
39443.8
39441.4
39439
39436.7
39434.5
39432.2
39430.1
39428
39425.9
39423.9
39421.9
39420
39418.1
39416.3
39414.5
39412.7
39411
39409.3
39407.7
39406.1
39404.6
39403.1
39401.6
39400.1
39398.7
39397.4
39396
39394.7
39393.5
39392.2
39391
39389.8
39388.7
39387.5
39386.4
39385.4
39384.3
39383.3
39382.3
39381.4
39380.4
39379.5
39378.6
39377.7
39376.9
39376
39375.2
39374.4
39373.7
39372.9
39372.2
39371.5
39370.8
39370.1
39369.4
39368.8
39368.2
39367.6
39367
39366.4
39365.8
39365.3
39364.7
39364.2
39363.7
39363.2
39362.7
39362.2
39361.8
39361.3
39360.9
39360.4
39360
39359.6
39359.2
39358.8
39358.5
39358.1
39357.7
39357.4
39357
39356.7
39356.4
39356.1
39355.8
39355.5
39355.2
39354.9
39354.6
39354.3
39354.1
39353.8
39353.6
39353.3
39353.1
39352.8
39352.6
39352.4
39352.2
39352
39351.8
39351.6
39351.4
39351.2
39351
39350.8
39350.6
39350.5
39350.3
39350.1
39350
39349.8
39349.7
39349.5
39349.4
39349.2
39349.1
39349
39348.8
39348.7
39348.6
39348.5
39348.4
39348.2
39348.1
39348
39347.9
39347.8
39347.7
39347.6
39347.5
39347.4
39347.3
39347.2
39347.2
39347.1
39347
39346.9
39346.8
39346.8
39346.7
39346.6
39346.5
39346.5
39346.4
39346.3
39346.3
39346.2
39346.2
39346.1
39346
39346
39345.9
39345.9
39345.8
39345.8
39345.7
39345.7
39345.6
39345.6
39345.5
39345.5
39345.5
39345.4
39345.4
39345.3
39345.3
39345.3
39345.2
39345.2
39345.2
39345.1
39345.1
39345.1
39345
39345
39345
39344.9
39344.9
39344.9
39344.8
39344.8
39344.8
39344.8
39344.7
39344.7
39344.7
39344.7
39344.7
39344.6
39344.6
39344.6
39344.6
39344.6
39344.5
39344.5
39344.5
39344.5
39344.5
39344.4
39344.4
39344.4
39344.4
39344.4
39344.4
39344.4
39344.3
39344.3
39344.3
39344.3
39344.3
39344.3
39344.3
39344.3
39344.2
39344.2
39344.2
39344.2
39344.2
39344.2
39344.2
39344.2
39344.2
39344.2
39344.1
39344.1
39344.1
39344.1
39344.1
39344.1
39344.1
39344.1
39344.1
39344.1
39344.1
39344.1
39344.1
39344.1
39344
39344
39344
39344
39344
39344
39344
39344
39344
39344
39344
39344
39344
39344
39344
39344
39344
39344
39344
39344
39343.9
39343.9
39343.9
39343.9
39343.9
39343.9
39343.9
39343.9
39343.9
39343.9
39343.9
39343.9
39343.9
39343.9
39343.9
39343.9
39343.9
39343.9
39343.9
39343.9
39343.9
39343.9
39343.9
39343.9
39343.9
39343.9
39343.9
39343.9
39343.9
39343.9
39343.9
39343.9
39343.9
39343.9
39343.9
39343.9
39343.9
39343.9
39343.9
39343.9
39343.9
39343.9
39343.9
39343.9
39343.9
39343.8
39343.8
39343.8
39343.8
39343.8
39343.8
39343.8
39343.8
39343.8
39343.8
39343.8
39343.8
39343.8
39343.8
39343.8
39343.8
39343.8
39343.8
39343.8
39343.8
39343.8
39343.8
39343.8
39343.8
39343.8
39343.8
39343.8
39343.8
39343.8
39343.8
39343.8
39343.8
39343.8
39343.8
39343.8
39343.8
39343.8
39343.8
39343.8
39343.8
39343.8
39343.8
39343.8
39343.8
39343.8
39343.8
39343.8
39343.8
39343.8
39343.8
39343.8
39343.8
39343.8
39343.8
39343.8
39343.8
39343.8
39343.8
39343.8
39343.8
39343.8
39343.8
39343.8
39343.8
39343.8
39343.8
39343.8
39343.8
39343.8
39343.8
39343.8
39343.8
39343.8
39343.8
39343.8
39343.8
39343.8
39343.8
39343.8
39343.8
39343.8
39343.8
39343.8
39343.8
39343.8
39343.8
39343.8
39343.8
39343.8
39343.8
39343.8
39343.8
39343.8
39343.8
39343.8
39343.8
39343.8
39343.8
39343.8
39343.8
39343.8
39343.8
39343.8
39343.8
39343.8
39343.8
39343.8
39343.8
39343.8
39343.8
39343.8
39343.8
39343.8
39343.8
39343.8
39343.8
39343.8
39343.8
39343.8
39723
39722.8
39722.5
39722
39721.3
39720.5
39719.5
39718.3
39717
39715.5
39713.8
39712
39710.1
39708
39705.7
39703.3
39700.8
39698.1
39695.3
39692.4
39689.4
39686.2
39682.9
39679.5
39676
39672.4
39668.7
39665
39661.1
39657.1
39653.1
39649
39644.9
39640.6
39636.4
39632
39627.7
39623.2
39618.8
39614.3
39609.8
39605.3
39600.7
39596.2
39591.6
39587.1
39582.5
39577.9
39573.4
39568.9
39564.3
39559.8
39555.4
39550.9
39546.5
39542.1
39537.8
39533.5
39529.2
39525
39520.8
39516.6
39512.5
39508.5
39504.5
39500.6
39496.7
39492.9
39489.1
39485.4
39481.8
39478.2
39474.7
39471.2
39467.8
39464.4
39461.2
39457.9
39454.8
39451.7
39448.6
39445.6
39442.7
39439.8
39437
39434.3
39431.6
39428.9
39426.4
39423.8
39421.4
39418.9
39416.6
39414.3
39412
39409.8
39407.6
39405.5
39403.5
39401.5
39399.5
39397.6
39395.7
39393.9
39392.1
39390.3
39388.6
39387
39385.4
39383.8
39382.2
39380.7
39379.3
39377.8
39376.4
39375.1
39373.7
39372.4
39371.2
39369.9
39368.7
39367.5
39366.4
39365.3
39364.2
39363.1
39362.1
39361.1
39360.1
39359.1
39358.2
39357.3