/*--------------------------------*- C++ -*----------------------------------*\
| =========                 |                                                 |
| \\      /  F ield         | OpenFOAM: The Open Source CFD Toolbox           |
|  \\    /   O peration     | Version:  v2012                                 |
|   \\  /    A nd           | Website:  www.openfoam.com                      |
|    \\/     M anipulation  |                                                 |
\*---------------------------------------------------------------------------*/
FoamFile
{
    version     2.0;
    format      ascii;
    class       volScalarField;
    location    "100";
    object      aE;
}
// * * * * * * * * * * * * * * * * * * * * * * * * * * * * * * * * * * * * * //

dimensions      [0 0 0 0 0 0 0];


internalField   nonuniform List<scalar> 
65536
(
4.71402
4.88935
4.85998
4.82045
4.9245
4.89952
4.94834
4.89234
4.82725
4.8638
4.79707
4.84781
4.67948
4.86831
4.61256
4.84175
4.82761
4.85367
4.87187
4.80905
4.65333
4.83522
4.91753
4.95675
4.73339
4.86897
4.89136
4.8021
4.8938
4.8905
4.93342
4.8436
4.98465
4.88258
5.02095
4.89882
4.94504
4.96553
4.91331
4.83243
4.93099
4.92032
4.83562
4.84564
4.89346
4.89876
4.76493
4.84721
4.85065
4.92464
4.96246
4.91993
4.93966
4.925
4.98417
4.90647
4.93482
4.67402
4.90109
4.89866
4.87512
4.91083
4.89256
4.9732
4.90719
4.89574
4.69907
4.8048
4.78406
4.88999
4.84905
4.81549
4.82876
4.89169
4.80568
4.83712
4.77514
4.79184
4.87089
4.73582
4.86202
4.90978
4.88058
4.8104
4.89323
4.8619
4.88721
4.87112
4.95037
4.936
4.88973
4.87179
4.93123
4.90667
4.8265
4.92073
4.92276
4.9342
4.89481
4.94583
4.91982
4.92424
4.93525
4.73312
4.91005
4.84858
4.91527
4.8198
4.88443
4.93959
4.95737
4.96593
4.90819
4.91894
4.74793
4.94175
4.88098
4.92236
4.91896
4.98306
4.85902
4.8716
4.8764
4.84795
4.89265
4.93534
4.86723
4.81944
4.86447
4.77726
4.89699
4.79901
4.8529
4.90648
4.91449
4.7435
4.91968
4.81883
4.84144
4.91329
4.95447
4.88791
4.98622
4.83331
4.93344
4.90015
4.96239
4.91938
4.91849
4.84038
4.91054
4.97149
4.80841
4.93372
4.88863
4.98364
4.80548
4.86484
4.92343
4.91619
4.98075
4.89761
4.90086
4.95364
4.84557
4.96094
4.92255
4.90494
4.86066
4.88742
4.92873
4.90786
5.01575
4.85742
4.91806
4.94479
4.74848
4.92457
4.9872
4.95937
4.9237
4.796
4.96765
4.77391
4.96272
4.91749
4.87444
4.90908
4.96209
4.94204
4.9025
4.98928
4.90706
4.87577
4.80921
4.87431
4.98033
5.01122
4.90747
4.88127
4.82377
4.72534
4.79638
4.8663
4.87418
4.89847
4.93082
4.77197
4.90909
4.85307
4.90692
4.88809
4.88159
4.88954
4.94045
4.9677
4.89776
4.83081
4.90328
4.81599
4.98321
4.84879
4.85404
4.74148
4.87458
4.9273
4.85746
4.7603
4.91373
4.88533
4.91997
4.91241
4.99396
4.88235
4.93244
4.88303
4.879
4.85622
4.72743
4.88227
4.77892
4.901
4.89075
4.95151
4.88906
4.92959
4.93516
4.82801
4.86367
4.91706
4.92577
4.96223
4.88906
4.91815
4.93449
4.94728
4.83871
4.92966
4.918
4.82878
4.80274
4.79928
4.84959
4.87135
4.67473
4.86843
4.92119
4.64009
4.88236
4.86789
4.84106
4.85915
4.91373
4.89503
4.8758
4.93176
4.84485
4.81544
4.88991
4.8678
4.7042
4.93893
4.90648
4.91326
4.94225
4.93476
4.86744
4.98547
4.9282
4.92719
4.97708
4.97895
4.91078
4.9207
4.93376
5.01849
4.85639
4.92972
4.87756
4.88714
4.82988
4.94921
4.90521
4.87932
4.96918
4.81506
4.92613
4.9583
4.90582
4.97044
4.9118
5.01743
4.92642
4.91038
4.76857
4.92819
4.94592
4.87391
5.00893
4.90791
4.94613
4.86148
4.89065
4.90665
4.89477
4.8818
4.98852
4.86813
4.83432
4.6929
4.89058
4.96198
4.85382
4.80147
4.87396
4.8945
4.92031
4.95984
4.89573
4.9037
4.93996
4.91823
4.8594
4.89163
4.86157
4.90479
4.9763
4.86619
4.88275
4.90434
4.92679
4.88917
4.86622
4.86403
4.73166
4.89007
4.80484
4.94621
4.99949
4.91573
4.85816
4.85773
4.81196
4.89506
4.84141
4.89849
4.90817
5.00372
4.88619
4.91889
4.94847
4.96624
4.9623
4.92346
4.96551
4.91882
4.9861
4.93749
4.97858
4.92802
4.89502
4.96079
4.99336
4.94222
4.93612
4.8568
4.74676
4.96135
4.93069
4.94411
4.96026
4.94294
4.87333
4.92005
4.80997
4.96967
4.83864
4.89523
4.97958
4.81905
4.90554
4.87301
4.91051
4.77245
4.86059
4.9282
5.00383
4.78154
4.85522
4.92252
4.92897
4.89157
4.86681
4.91502
4.96241
4.90582
4.94691
4.92353
4.82678
4.92135
4.93346
4.8481
4.76735
4.8047
4.91921
4.83843
4.83369
4.80731
4.85391
4.88378
4.79648
4.89943
4.99496
4.84797
4.87043
4.71675
4.88917
4.98652
4.98877
4.99625
4.92965
4.96872
4.90134
4.92818
4.99645
4.91744
4.90348
4.92768
4.95992
4.87056
4.72343
4.91299
4.87948
4.95046
4.91169
4.85357
4.84505
4.96295
4.89044
4.98658
4.74707
4.9255
4.92501
4.92558
4.89905
4.89605
4.86612
4.95627
4.95746
4.83201
4.90065
4.87313
4.98571
4.88078
4.86398
4.91081
4.83212
4.89393
4.84516
4.83892
4.83169
4.91894
4.68358
4.92203
4.68615
4.81585
4.86825
4.93138
4.89274
4.88869
4.89634
4.91056
4.88721
4.87135
4.85558
4.83907
4.8656
4.67021
4.8086
4.82878
4.92586
4.88105
4.89659
4.94906
4.90248
4.92528
4.88317
4.87805
4.99153
4.8971
4.89692
4.7636
1.65756
2.17443
2.02893
1.96185
2.32357
2.18303
2.42819
2.34967
1.97867
2.09055
1.93252
2.18021
1.72247
2.31327
1.55771
2.12121
2.01352
2.00201
2.03308
1.91268
1.44894
1.98768
2.17513
2.32984
1.57273
2.0592
2.0042
1.78993
1.95877
1.98749
2.05015
1.80598
2.30084
1.87545
2.48088
2.00921
2.09664
2.20637
2.04444
1.72693
2.10054
2.03693
1.79523
1.9427
2.01001
2.12977
1.73698
1.9516
1.93116
2.08454
2.09492
1.99988
2.06292
2.0384
2.26796
1.99894
2.28241
1.49256
2.11808
1.97943
1.87586
1.99861
1.9238
2.26251
2.03689
2.01525
1.49869
1.88139
1.85358
2.22882
1.95603
1.87352
1.91814
2.16655
1.96839
2.16112
1.92493
2.00512
2.21165
1.71602
2.10853
2.08319
2.00622
1.75105
2.06887
1.93462
2.00779
1.87452
2.10205
2.0704
1.88324
1.92096
2.06914
2.11238
1.77511
2.15376
2.12507
2.10883
2.00535
2.20383
2.01367
2.09774
2.13485
1.58421
2.10925
1.89592
2.08653
1.84872
1.98036
2.0902
2.16449
2.16083
2.03667
2.06631
1.55629
2.08428
1.80334
1.89162
2.07362
2.18212
1.78806
1.87739
2.01304
1.9466
2.11987
2.18018
2.04482
1.90811
2.09486
1.78374
2.09904
1.75731
1.93041
2.09091
2.08241
1.59358
2.17864
1.75089
1.88752
2.13822
2.24634
2.02907
2.31787
1.7525
2.07311
1.85729
2.14186
2.02702
2.00613
1.76603
1.98396
2.20313
1.69392
2.04635
1.82439
2.29695
1.74928
1.90212
1.95418
1.88864
2.20132
1.92683
1.86697
2.0912
1.71836
2.08729
2.09577
2.00028
1.89908
1.94237
2.15761
2.07778
2.41222
1.75178
2.03858
2.16262
1.54166
2.20033
2.27763
2.29828
2.15074
1.67666
2.39098
1.68937
2.30726
2.05641
1.9858
1.95108
2.16498
2.07605
1.93456
2.30431
2.05628
1.89314
1.81864
2.04194
2.3487
2.46487
2.07819
2.02712
1.89938
1.6081
1.87294
2.01439
2.00084
2.11565
2.2714
1.79832
2.17998
1.93516
2.10179
1.98402
1.9055
2.02668
2.12749
2.31745
2.07793
1.84287
2.0588
1.77355
2.37601
1.96126
2.06519
1.85188
2.05636
2.20412
1.92841
1.64993
2.10406
1.91302
1.92521
1.99647
2.25442
1.93385
2.0765
1.96723
1.87898
1.96065
1.55326
2.0102
1.72238
2.01872
1.98096
2.08647
1.83297
1.99044
2.03537
1.78974
1.95809
2.11353
2.14157
2.21308
2.04424
2.11348
2.06951
2.11126
1.75873
2.215
2.06124
1.91532
1.8094
1.77604
2.02306
2.10401
1.56773
2.12804
2.26716
1.50644
2.23276
2.20349
2.0443
2.03905
2.07543
1.97698
1.90913
2.09655
1.85332
1.82059
2.11137
2.17079
1.61226
2.24107
1.95073
1.91973
2.03077
2.08144
1.82958
2.19396
2.01001
1.98715
2.16724
2.15945
1.92204
1.99821
1.9948
2.39517
1.8039
2.16356
1.88482
2.01153
1.75071
2.29769
1.97409
1.86759
2.22704
1.64632
2.07949
2.09846
2.00185
2.15689
1.94553
2.39218
1.94712
2.02358
1.582
2.0981
2.16392
1.83088
2.26603
1.94204
2.00268
1.78768
1.98436
1.85731
2.04188
2.00325
2.41248
1.98221
2.03804
1.62972
2.12777
2.33751
1.92269
1.75206
1.9491
1.96196
2.1324
2.13335
1.95176
2.01118
2.09433
2.03941
1.85434
2.2753
1.94366
2.00246
2.38296
1.97192
2.01004
2.06938
2.09468
2.0129
1.95563
2.02394
1.68739
2.20749
1.86762
2.33635
2.5343
2.12555
2.04464
2.04726
1.79674
2.00352
1.78357
1.99885
1.94606
2.27681
1.81193
1.97946
1.98322
1.99045
1.98843
1.89556
1.99615
1.93311
2.15125
1.93775
2.09708
1.88953
1.79966
2.01113
2.09761
2.007
2.06088
1.88882
1.58181
2.3083
2.09821
2.09319
2.11178
1.97275
1.84131
2.09576
1.75908
2.32751
1.88358
2.06241
2.37811
1.78453
2.15175
1.95925
2.26761
1.70704
1.94847
2.18195
2.34692
1.60844
1.79505
1.98646
2.02518
1.89929
1.8042
2.00093
2.15081
1.90325
2.17632
2.16499
1.79809
2.09031
2.17556
1.92405
1.79556
1.87783
2.23213
1.99944
1.9385
1.81175
1.9612
2.08364
1.77287
2.09391
2.45111
1.86526
2.00999
1.70069
2.05042
2.22766
2.24998
2.20017
1.93476
2.05349
1.96761
1.90555
2.21493
2.01582
1.99612
2.11865
2.22502
2.08108
1.56304
2.06086
1.84933
2.11165
1.92293
1.88852
1.83507
2.22029
2.00363
2.44464
1.64621
2.18758
1.97139
2.00032
1.90961
1.91051
1.8337
2.19045
2.24162
1.7575
2.07611
1.9308
2.28493
1.89615
1.83608
2.02274
1.72024
2.01245
1.83944
1.92335
1.90461
2.18105
1.54905
2.30819
1.53706
1.85241
2.01317
2.09973
1.85918
1.93441
1.93088
2.00631
1.94231
1.91257
1.87754
1.84383
2.00492
1.47271
1.882
1.88581
2.12892
2.0014
2.04473
2.28553
1.99921
2.10612
2.00527
1.92441
2.38179
2.01328
2.03891
1.55795
2.03683
1.33182
1.59515
1.55309
1.05214
1.36551
0.923225
0.944744
1.63318
1.66098
1.83902
1.38237
2.05544
1.24491
2.28018
1.47712
1.38509
1.57644
1.65808
1.75644
2.44343
1.52564
1.22999
1.04471
2.25529
1.30936
1.43608
1.49452
1.51154
1.33047
1.41368
1.71811
1.07052
1.84017
0.833649
1.60991
1.64015
1.20095
1.34256
1.8471
1.25706
1.4357
1.8662
1.51494
1.66615
1.39854
1.94143
1.51656
1.38254
1.36145
1.53514
1.40542
1.37146
1.36648
1.14579
1.6559
1.12003
2.16175
1.3035
1.47799
1.53005
1.38099
1.54306
0.900203
1.30526
1.52723
2.28818
1.64488
1.69682
0.988468
1.53753
1.61883
1.66494
1.3729
1.69428
1.42166
1.69697
1.45577
1.12553
1.94827
1.24567
1.45417
1.45758
1.80399
1.20607
1.51217
1.27953
1.51522
1.19211
1.21061
1.67506
1.50003
1.51531
1.18616
1.74121
1.22909
1.33588
1.43859
1.50549
1.05349
1.51622
1.23252
1.29434
2.03852
1.2758
1.41491
1.16446
1.41319
1.35458
1.32739
1.19555
1.26974
1.281
1.33415
2.02093
1.32112
1.63
1.64516
1.05508
1.26812
1.76382
1.7931
1.3801
1.48674
1.31992
1.40249
1.42791
1.70878
1.27387
1.82264
1.53612
1.96481
1.61767
1.32409
1.40606
2.10189
1.22338
1.88651
1.64266
1.36963
1.29912
1.4609
1.15599
1.86822
1.42151
1.83341
1.23339
1.36152
1.44232
1.7155
1.41258
1.13418
1.87415
1.38793
1.78298
0.943786
1.78772
1.57555
1.57941
1.71834
1.04992
1.43857
1.67584
1.26555
1.90691
1.47305
1.13373
1.41868
1.53322
1.59074
1.20024
1.2893
0.793162
1.93008
1.33056
1.18451
2.15031
1.02991
1.10413
0.839814
1.28663
2.0205
0.824803
1.9807
1.07267
1.47495
1.24865
1.57222
1.04049
1.26927
1.46714
0.880154
1.27689
1.77321
1.79377
1.46776
1.01401
0.795399
1.38684
1.43258
1.61877
2.16523
1.67482
1.51898
1.54259
1.30438
1.07864
1.69002
1.27136
1.62631
1.29357
1.44559
1.68181
1.4318
1.47324
0.992249
1.33107
1.68881
1.3815
1.80533
0.960903
1.57762
1.45256
1.63427
1.48461
1.12311
1.57272
1.92994
1.16952
1.44647
1.6297
1.26419
0.96488
1.43453
1.49059
1.58333
1.85312
1.52457
2.17391
1.55534
1.849
1.40796
1.2271
1.32485
1.68361
1.47648
1.52005
1.72193
1.43649
1.21962
1.22929
1.2272
1.27088
1.13226
1.37105
1.24441
1.65459
0.856617
1.37552
1.33364
1.77622
1.74356
1.26936
1.34992
2.05008
1.307
1.22832
2.24462
1.25909
1.30908
1.49135
1.38345
1.46437
1.52226
1.59991
1.31526
1.67281
1.69132
1.17671
1.04028
1.98405
1.03542
1.57454
1.53847
1.36618
1.19041
1.55577
1.13747
1.39653
1.46267
1.13182
1.12132
1.53056
1.32998
1.56544
0.853604
1.77749
1.19008
1.91584
1.50708
1.95021
0.798475
1.57227
1.62643
1.16266
1.97877
1.27485
1.44612
1.35386
1.19992
1.52254
0.742779
1.76832
1.4875
2.08447
1.25828
1.06918
1.67908
1.1625
1.52191
1.62096
1.75551
1.26407
1.8964
1.30607
1.52513
0.997451
1.7194
1.40239
1.89825
1.45025
1.04307
1.58175
1.7986
1.55367
1.53863
1.14114
1.23861
1.37438
1.11177
1.17497
1.24079
1.74452
0.798684
1.58836
1.78533
0.835456
1.55525
1.62276
1.46936
1.40103
1.4178
1.52888
1.47166
1.98901
1.23777
1.73274
1.01129
0.757223
1.62637
1.4307
1.38452
1.67162
1.44884
1.75628
1.27067
1.40059
0.893364
1.61111
1.17129
1.40201
1.4293
1.4483
1.54908
1.4782
1.33111
1.04097
1.36734
1.25937
1.45339
1.57138
1.35624
1.34178
1.34066
1.27187
1.52795
2.05493
0.866465
1.10713
1.11195
1.08989
1.56206
1.55277
1.33447
1.93141
1.07831
1.69024
1.48679
0.962811
1.85053
1.21564
1.61899
0.909002
1.97528
1.54895
1.09083
0.932133
2.05737
1.74783
1.44331
1.38771
1.56908
1.73825
1.47553
1.38648
1.64293
1.11273
0.963863
1.68796
1.31498
1.13936
1.61617
1.83316
1.72784
1.21573
1.54545
1.66216
1.91518
1.60662
1.42764
1.82103
1.36897
0.785788
1.82185
1.67203
1.82374
1.47133
1.23025
1.01514
1.23777
1.68699
1.67376
1.43331
1.77257
1.13838
1.37875
1.5111
1.39448
1.33349
1.2785
2.19612
1.41526
1.73185
1.2644
1.58236
1.45344
1.61903
1.14665
1.47804
0.772403
2.02818
1.15417
1.71476
1.46124
1.60945
1.5721
1.66826
1.09676
1.00415
1.91113
1.21258
1.56444
1.16663
1.72163
1.75413
1.47553
1.97535
1.33915
1.7571
1.61515
1.60558
1.38605
2.16957
1.06239
2.23026
1.80393
1.37097
1.30738
1.78032
1.51969
1.54015
1.47782
1.44573
1.55301
1.62071
1.67247
1.42726
2.29405
1.64745
1.72317
1.33039
1.35254
1.3354
0.83607
1.42475
1.29071
1.34928
1.52396
0.79735
1.32946
1.22646
2.10767
0.52635
1.3877
1.0919
1.16243
1.80389
1.50336
2.06088
2.03717
1.33639
0.961179
0.776562
1.50638
0.628777
1.8478
0.606504
1.45545
1.48995
0.984898
0.903516
1.08428
0.219067
1.31937
1.52544
1.79081
0.174673
1.40809
1.19741
1.13108
0.978844
1.31562
1.27995
0.882377
1.63728
0.716179
1.95089
1.04123
0.945701
1.63651
1.4302
0.76076
1.38094
1.10754
0.596303
1.14463
0.928186
1.37049
0.707399
1.12893
1.28507
1.06936
0.849259
1.27456
1.10536
1.30804
1.52276
0.903307
1.71622
0.425519
1.2034
1.14556
1.23596
1.19839
0.852858
1.79332
1.24432
1.05699
0.00192133
0.995773
0.817718
1.74443
1.03435
0.974893
0.9946
1.4161
1.10392
1.43052
0.963988
1.26857
1.69275
0.306026
1.36189
1.11537
1.08163
0.664543
1.45662
0.792977
1.18663
0.897124
1.22843
1.24173
0.604979
1.05724
0.889045
1.31305
0.96151
1.40754
1.25904
1.13453
0.972673
1.52004
0.807688
1.36053
1.41343
0.46793
1.41195
1.32216
1.55541
1.13959
1.14347
1.18992
1.4495
1.35335
1.46079
1.39776
0.615869
1.32152
0.959662
0.890134
1.62856
1.16171
0.766174
0.538371
1.30595
1.29006
1.38243
1.28489
1.29858
0.776104
1.53944
0.811144
1.13399
0.593702
0.958507
1.25993
1.22672
0.263515
1.35481
0.721101
1.01624
1.13298
1.26436
1.33885
1.49447
0.641133
1.02776
0.50952
1.49427
1.26413
1.27092
0.979837
1.224
1.51231
0.520969
1.11185
0.623436
1.67852
0.624917
0.924634
1.01904
0.618934
1.56709
1.11067
0.785874
1.46437
0.466468
0.929268
1.50616
1.19709
1.07892
1.01732
1.44677
1.33322
1.96284
0.513751
1.2481
1.47683
0.257259
1.74372
1.55977
2.01129
1.14219
0.362169
1.85636
0.501164
1.66777
1.10006
1.56739
0.821482
1.6113
1.14788
1.04851
1.80082
1.35647
0.907955
1.19021
1.31754
1.78744
1.93844
1.37104
1.31898
1.10765
0.356051
0.960034
1.09194
1.05971
1.42233
1.66107
1.25259
1.51554
0.905583
1.31805
1.16964
0.887314
1.17497
1.10664
1.83946
1.33967
0.797938
1.25442
0.838405
1.8826
1.1428
1.24196
1.18943
1.29556
1.60085
0.920836
0.408429
1.4513
1.17675
0.750343
1.42162
1.87452
1.21793
0.964412
0.928342
0.617343
1.13461
0.186167
1.01231
0.663172
1.09028
1.38675
1.01349
0.756416
0.940149
0.773809
0.736221
1.16335
1.50919
1.42454
1.40643
1.41237
1.53288
1.08147
1.15128
0.924131
1.8937
1.14774
1.49061
0.693661
1.0141
1.5581
1.45373
0.62881
1.50074
1.54315
0.318766
1.69266
1.55248
1.25375
1.34154
1.00227
1.00799
0.813243
1.28264
0.835741
0.862934
1.59933
1.97223
0.783404
1.79761
0.853322
0.907234
1.13527
1.44525
1.14533
1.51668
1.13535
1.00209
1.35824
1.44293
0.856826
1.28368
0.792894
1.83495
0.865696
1.52475
0.557567
1.26069
0.583965
2.04678
0.924654
0.78884
0.976043
0.249163
1.26225
1.05991
1.27409
1.43769
0.947914
2.04911
0.551591
1.02971
0.348024
1.45142
1.6384
0.826921
1.39816
0.989953
0.727686
0.643961
1.45051
0.731657
1.3861
1.00682
1.67484
0.875338
1.27639
0.37428
1.03574
1.58795
1.13367
0.835563
1.00647
1.04637
1.42732
1.47043
1.29203
1.61256
1.25252
1.47395
0.857592
1.903
1.22519
0.519162
2.11771
1.16338
0.845301
0.968972
0.997317
1.0886
1.06197
1.27258
0.694072
1.37677
0.797685
1.95438
2.13598
1.04449
1.3928
1.24603
1.07754
1.23448
0.730675
1.42088
1.3139
1.88322
0.963193
1.51709
0.926366
1.04126
1.00806
0.837146
0.851834
1.04485
1.40693
1.13277
0.878525
1.1904
0.986077
1.08803
0.942724
1.03803
1.35761
1.29204
0.543924
1.87449
1.65328
1.4663
1.42893
0.790094
1.01587
1.05371
0.383922
1.53809
0.835236
1.04232
1.72907
0.649987
1.29564
0.826479
1.85622
0.291204
0.998741
1.46289
1.69974
0.271786
0.844775
1.07659
0.994122
0.87664
0.759136
0.912664
0.816652
0.918517
1.38941
1.89026
0.75317
1.18118
1.56048
0.987921
0.620126
0.819541
1.45957
1.02241
1.02744
0.673612
1.01528
1.07386
0.734446
1.274
2.00219
0.793516
0.930936
0.861606
1.1968
1.44812
1.62578
1.24837
0.744962
0.749056
1.19668
0.605232
1.48168
1.19294
0.980692
1.11089
1.24191
1.46299
0.0989162
1.19919
0.653658
1.13954
1.15605
1.28414
1.01971
1.58337
1.13508
2.10214
0.438271
1.53011
0.611592
1.03601
0.767238
0.885643
0.831206
1.41783
1.40651
0.153118
1.39165
0.95043
1.46529
0.928305
0.926958
1.13003
0.438531
1.42807
0.797248
0.849407
1.08062
1.37128
0.250679
1.71563
0.137065
0.693858
1.18374
1.04789
0.116042
0.624948
0.913634
0.855734
1.11438
0.921553
0.979109
1.02177
1.39897
0.0587775
1.22338
0.865311
1.35019
1.2335
1.07583
1.88969
1.2895
1.33482
1.41903
1.18444
1.93658
1.27869
1.42199
0.107532
1.5041
0.890951
1.06882
1.27871
0.406736
0.962463
0.591428
0.205671
0.896509
1.4457
1.5854
0.893921
1.6773
0.59656
2.66678
0.587296
0.309439
1.11538
1.5255
1.55252
2.64202
1.13025
0.834057
0.55532
2.38846
0.568247
0.530416
0.0765938
0.677196
0.539752
0.829462
1.43904
0.762484
1.87677
0.541943
1.6815
1.67637
0.564804
0.743593
1.42457
0.769554
1.15234
1.53837
1.04733
1.22661
0.877744
2.3006
0.725004
0.400244
1.10565
1.44717
0.709153
1.07816
0.887706
0.770203
1.56952
0.714438
2.50386
1.02811
0.73182
0.615057
0.881785
1.25952
0.0528607
0.908367
1.28724
2.46472
1.37977
1.89022
0.0885036
1.2522
1.35309
1.34082
0.975626
1.3199
2.14667
1.28407
1.03355
0.479522
1.62434
0.617959
0.905098
0.926134
1.39063
0.618943
1.35107
0.504978
0.921051
0.614372
0.77592
1.59584
0.996229
1.22929
0.883577
0.929282
0.627325
1.00037
1.16929
1.19775
0.639697
1.50267
0.787056
0.865415
2.22513
0.826157
0.719131
0.447568
0.900006
1.00874
0.977239
0.617393
0.856385
0.607992
0.963855
2.42493
0.82964
1.13386
1.08132
0.229547
0.916937
1.47496
1.86495
1.02422
1.02139
1.02043
1.13513
0.961495
1.35465
0.38021
1.34125
1.03335
1.70796
1.43983
1.05247
1.15554
2.17528
0.856333
1.48486
1.0572
1.26586
1.29931
0.884438
0.742824
1.6538
1.09338
1.72139
0.382477
0.854712
0.765039
1.10667
0.942313
0.556778
1.98141
1.17571
1.66076
0.495529
1.93289
1.30839
1.00543
1.60744
0.474513
1.06366
1.43675
0.547453
1.83282
1.40568
0.648499
0.86428
1.0743
1.14038
0.689235
0.908589
0.472348
1.86534
0.852868
0.617849
2.25637
0.365635
0.655016
0.289133
0.956921
1.5024
0.158089
1.75075
0.412841
1.06893
0.457629
1.17577
0.0252091
0.882641
1.20769
0.610569
0.908932
1.55129
2.6583
0.945837
0.243741
0.400899
0.825016
0.870053
1.19634
2.30358
1.3006
1.14321
1.16953
0.684455
0.628075
0.573375
0.311073
1.263
0.829795
0.984471
1.18686
0.927718
1.28557
0.279767
0.933519
1.54563
1.10217
1.72106
0.944406
1.31641
1.2175
2.27703
0.980768
0.534958
1.3751
1.88695
0.618941
0.745126
1.3174
0.581631
0.0315326
0.974341
1.11945
1.23343
1.6828
1.19221
2.21692
1.33889
2.03206
0.837373
0.142284
0.84589
1.27586
1.18971
1.41844
1.34797
0.798618
0.253439
0.43587
0.477907
0.530113
0.630852
1.06712
1.26451
1.15738
0.112453
0.992861
0.440155
1.08653
0.682601
0.534917
0.716854
2.29732
0.804681
0.807556
2.48835
0.56173
2.15297
0.862932
0.580967
1.226
1.06392
1.42969
0.791575
1.25449
1.05955
0.4069
0.0193266
2.43281
0.376278
1.22216
1.15096
0.854425
0.464835
0.649935
0.360202
0.844784
1.01946
0.715429
0.642491
1.33534
0.793186
1.78584
0.900466
1.69647
0.89009
1.93641
1.04273
1.95912
0.214668
1.17829
1.36373
0.906009
1.14634
0.528503
1.09477
0.88299
0.715662
1.47967
0.280948
1.96686
1.36463
2.01728
0.760664
0.445877
1.58563
0.895088
1.22032
1.56876
1.64229
0.752877
1.14713
0.756617
1.52745
0.890738
1.63657
0.853001
1.30238
1.1193
1.07092
1.28027
1.3616
1.2553
1.15085
0.721289
0.46974
0.674205
0.368218
0.773313
0.486208
1.3996
0.639691
0.953936
1.98257
0.272206
1.13237
1.49766
1.34181
1.35432
1.03639
0.939916
0.688192
2.43892
1.15903
1.62727
9.19616e-05
0.153645
1.56676
0.921133
1.10549
1.04549
0.851033
1.43068
0.62228
0.650312
0.0733506
0.958021
0.545778
1.31839
1.05008
0.909075
1.19333
1.43076
1.20808
0.709104
0.900841
1.40746
0.679292
0.910276
0.870161
1.10564
1.17111
0.721176
0.900776
2.41655
0.332772
0.449555
0.852149
0.626009
0.901712
0.93693
1.14164
1.98011
0.672472
1.49775
1.48283
0.871637
1.9329
1.03423
1.43741
0.0383388
1.81058
1.05793
0.542795
0.463325
2.14402
1.30855
1.07673
1.18136
1.173
1.44931
1.46226
1.47305
1.27041
0.8216
0.0424284
1.46129
1.00176
0.456022
1.19413
1.81261
1.55604
0.94932
1.47506
1.46001
1.78497
1.44872
1.37379
1.61465
1.2217
0.643426
1.68899
1.3938
2.10552
1.2114
0.703034
0.567735
1.13632
1.83073
1.76339
1.02304
1.7712
0.59344
0.953101
1.34283
1.29435
1.04079
0.895242
2.51157
1.05508
1.60537
1.25033
0.79738
0.841191
1.31828
0.623831
1.276
0.0790499
2.24861
0.713698
1.80616
1.20898
1.43058
1.34192
1.29406
0.687261
0.68638
1.76406
0.584772
1.26404
0.667752
1.13676
1.16395
1.04332
1.83761
0.714017
1.29319
1.43376
1.1205
0.848758
2.08951
0.483805
2.28741
1.61749
0.906046
0.566649
0.659994
1.07769
0.908144
1.02107
0.277026
1.09632
1.12661
1.10169
0.65952
1.79665
0.929879
1.4422
0.81211
0.969416
1.22505
0.415371
0.907016
0.904426
0.721073
1.15611
0.107604
0.83659
0.720836
1.89179
0.758643
0.723259
1.15335
0.69297
1.92728
1.37723
2.54333
2.44829
1.19298
0.567536
0.651283
1.3001
0.896451
1.46932
2.04026
0.829783
0.0728673
0.563317
0.571246
1.0516
2.15612
0.447045
1.04626
1.66657
1.85077
1.42846
1.04343
0.133276
0.5508
0.934422
0.772361
0.649857
2.20198
0.261084
2.62
0.675988
2.16553
1.69321
1.56749
0.912646
1.45592
0.852219
0.437471
0.985352
1.06033
1.13326
2.14272
0.781582
0.878979
0.53712
1.41528
1.136
0.908746
1.25186
1.91557
0.442105
1.62883
1.65144
0.768694
1.2936
1.52647
1.04686
0.652161
1.69222
0.648237
0.33654
1.92144
0.185413
1.88897
1.45295
0.545255
0.685878
0.792542
2.04084
0.870855
3.07971
0.375266
0.97739
1.71427
0.895371
1.05313
0.996199
0.867917
0.350026
0.905341
1.11995
1.12554
0.795016
1.07388
0.690942
0.259381
0.830368
0.942478
0.126646
1.01834
1.42301
1.01387
1.63148
0.72379
1.20001
0.200357
1.11142
1.05623
1.60156
0.916252
1.08141
1.36745
1.12079
0.609202
0.779007
1.45851
1.6155
1.37856
0.85801
1.92161
0.970315
0.866124
0.756529
1.48311
0.687239
0.366678
0.317193
1.23841
1.3738
1.22857
1.70547
0.954254
0.487432
1.42171
0.309321
1.41987
0.594896
0.673071
0.865257
0.64313
1.59105
1.09595
0.538218
0.899492
0.215098
1.92594
1.42342
1.85531
0.035967
0.91848
0.0633562
1.63264
1.11263
1.43276
1.13816
1.11
1.339
1.45871
0.477363
0.140301
1.38858
1.64379
0.313902
1.05728
0.372598
1.61152
0.810623
0.432221
1.59641
0.217308
0.442219
1.35833
0.95985
0.713544
1.07825
1.03853
0.99453
2.60787
0.0581883
1.20533
1.32273
1.54478
1.53814
1.28697
2.61755
0.893323
0.850408
2.11527
0.138654
1.64919
0.971702
1.46242
0.799225
1.34744
0.609634
0.610924
2.5452
1.18882
0.199905
3.28291
0.912709
1.59451
2.40744
1.35465
1.01978
0.638609
1.98472
0.421324
0.806834
0.791905
1.19142
1.19464
1.81666
1.30483
0.536366
0.949195
0.82217
0.730033
1.24867
1.60703
1.94719
1.17033
0.321645
0.956942
0.633632
3.08136
0.919902
0.139528
2.23847
0.736754
1.32563
0.0705659
1.26937
1.05659
1.11428
0.437208
1.39717
2.41174
0.90815
0.884505
0.846425
0.573884
1.21421
1.81725
0.308852
1.6598
0.462922
0.414329
0.55555
0.345346
0.692633
0.546822
0.437149
0.947517
1.21986
1.39589
1.21206
1.35416
0.954577
0.642446
0.183749
0.660414
2.1785
0.925808
1.40041
0.715263
1.62886
1.44854
1.27683
1.49341
0.924653
0.992138
1.66497
1.31687
2.96269
0.831901
1.21141
0.45006
0.755074
0.148189
0.935273
0.445423
0.495578
0.910362
1.60325
1.96287
1.55162
0.373216
0.564583
0.888355
1.37522
1.3747
1.26097
0.908923
0.825243
1.0587
1.10695
0.585414
1.21095
0.26418
3.00724
0.469797
1.07355
1.44311
1.02663
0.182436
2.16359
0.773744
0.328568
0.760393
0.0430262
1.31783
1.50268
1.02684
1.29551
0.523254
2.5221
0.0191328
0.62382
1.41724
1.16226
1.62487
0.328765
1.85168
0.984292
0.205928
0.157985
1.2327
1.01236
1.43096
0.527606
2.31002
0.214243
0.835567
0.0277482
0.705697
2.51607
0.938123
0.895484
0.823922
0.679499
0.85813
1.45533
1.04602
0.987354
0.449294
1.18373
0.524417
2.18983
1.24987
0.0909816
3.06732
1.08464
1.36175
0.290705
0.0302319
0.594805
0.594231
0.891941
2.16299
0.643874
0.237015
2.18768
2.39984
1.78774
1.29869
0.61872
0.97977
1.05849
0.174386
0.904278
1.37022
2.31745
1.12969
1.19042
0.349461
0.583828
0.985499
0.494931
0.0261749
0.0147714
0.796512
0.784731
0.220172
0.944165
0.867655
0.745453
0.247993
0.346907
1.153
1.26925
2.18638
1.68581
1.4559
0.671819
1.0489
1.18517
1.31515
0.56054
1.56624
1.92661
0.563208
0.754742
2.7372
0.404658
0.854738
0.274435
1.98254
1.32775
0.782897
1.39838
1.11545
1.7435
0.696812
0.741069
0.466865
0.905974
0.835977
0.559649
0.605122
0.492405
1.15804
1.78128
0.218005
0.824675
1.33674
0.495418
1.66193
0.280222
0.794622
0.221208
1.77502
0.593381
0.683464
0.419757
0.580001
1.19883
3.00261
0.4707
0.408158
1.67311
0.547866
1.20852
1.54678
0.960215
0.100553
1.69018
1.32946
0.0835556
1.25287
0.871573
0.560933
0.626591
1.37684
1.07949
2.15361
0.807224
0.183704
0.586162
1.25229
1.36368
0.808921
1.45879
0.771877
2.17685
1.7491
1.35452
0.0965624
0.766904
0.426296
0.508552
0.638133
1.22779
1.01353
1.50936
1.13197
0.492858
1.61433
0.881123
0.698808
0.991512
0.42837
1.27772
0.592563
0.377471
0.85114
1.41521
1.26985
1.53677
1.8025
0.403848
0.99134
0.74093
0.649021
0.429225
0.677969
0.411525
0.0706896
0.385506
0.766025
0.929013
1.42439
0.913001
1.70769
0.776782
1.10023
0.835211
0.68245
2.59954
1.36822
1.13651
1.52898
0.977184
2.00645
1.31375
0.972906
1.07273
0.214948
0.662444
0.375191
0.881819
1.60813
0.316607
1.82704
1.97877
0.4109
1.26539
1.20001
0.516833
1.56798
0.271305
1.66278
0.717228
0.274129
0.778904
1.76949
2.45202
1.77608
0.992895
1.17314
0.200661
1.48537
1.46371
0.812559
0.233639
0.59276
0.144927
0.987513
1.39682
1.67634
1.56175
1.87534
1.38255
3.1877
1.4216
0.382043
2.19362
0.372398
1.0096
1.19773
1.05459
1.02855
0.279756
0.904935
0.390443
0.944633
0.973045
1.32334
0.05569
0.84798
0.563632
1.77024
1.54946
1.20288
1.35229
0.168166
0.390793
1.27845
0.520342
0.998944
1.1596
0.578556
1.25874
1.15084
1.58962
0.854952
0.00338869
1.2363
1.67689
0.844905
1.90592
0.78059
0.312142
1.65823
1.36628
0.0525519
1.62035
0.670359
0.677419
0.292912
0.876653
0.784881
1.007
0.0750913
0.542427
0.930608
0.946481
2.15288
0.848957
0.775327
0.237
1.93622
0.372626
1.38662
1.72038
0.731123
0.699089
1.48567
0.555002
0.709486
1.61796
0.761306
0.668976
0.0771622
0.92858
0.787115
0.923509
0.223608
1.48812
0.197295
0.672183
1.4336
0.547256
1.61556
0.844501
0.399697
0.753106
1.72392
2.41427
0.886354
1.87495
0.758161
1.63425
0.576386
0.868145
0.964809
1.20312
1.25276
2.61632
1.45972
1.27127
1.28419
1.38331
0.777641
2.00108
0.669077
0.0584526
1.43989
0.0365675
1.13992
1.11288
0.530418
1.57682
0.1398
0.891711
1.65988
2.1453
0.777687
0.178227
1.29594
1.04956
1.44984
0.822984
1.4448
1.15258
0.553287
1.41523
0.0885034
1.05405
1.53992
0.297921
2.22138
1.59948
0.298834
0.718676
0.72841
0.960008
0.477852
0.468721
1.6662
1.83199
0.60251
0.266277
1.44203
0.813726
0.787943
2.20132
0.743707
1.1784
1.09205
1.78198
0.685956
0.780618
0.602468
0.584931
1.15676
0.722123
0.876695
2.22313
0.450324
2.13052
0.0727086
0.621679
0.175396
1.46172
0.204339
0.698823
1.37421
0.93086
1.16125
0.884202
1.00337
0.473636
1.0053
2.21822
0.787864
1.37944
0.859797
0.873491
0.802626
0.0554813
1.42582
1.20902
0.566566
1.46791
0.967182
2.12802
3.08463
0.440392
0.622845
0.822872
0.746236
0.0577859
1.20518
1.23639
0.396136
0.30929
1.18291
0.061794
2.09278
0.847107
0.340361
0.961847
1.78908
2.03751
1.2592
1.28864
1.31918
0.826421
0.488839
0.683028
1.14411
0.851138
0.952912
1.23095
0.59889
0.728034
0.132436
0.976615
1.53393
1.06726
1.37902
1.95617
0.64459
1.53508
1.16267
0.644958
1.79204
0.233777
0.0836324
0.121988
1.75704
0.552403
0.28911
1.5341
0.423193
0.367892
0.998237
1.32525
1.24337
0.638048
1.0293
0.317592
1.13422
0.874647
0.484364
0.965376
1.20522
1.49006
1.34563
0.950055
0.823859
0.271022
0.317671
0.123029
0.550316
0.450069
0.431844
0.350572
0.81764
0.492772
1.76954
2.8555
1.2677
0.857513
2.21841
0.878799
2.43636
0.68998
0.947851
1.30246
0.660617
1.502
0.021613
1.6029
0.844775
0.564423
1.2867
1.60256
1.83911
1.09043
2.4915
0.475682
0.0784513
1.73912
1.52947
0.749529
1.42315
1.39732
0.880221
1.46737
0.222222
1.20079
1.74858
1.56105
0.0654264
0.618528
0.321527
2.07124
0.892122
1.93605
1.18879
0.923191
0.393864
1.09133
0.742604
0.812136
0.402978
0.151724
0.772787
0.168034
0.115608
1.86595
2.72728
0.0618284
1.3451
1.38327
1.26031
0.728262
0.954752
0.989489
1.07047
1.39091
2.05099
2.05983
1.45917
2.04328
0.0672188
0.606246
1.24247
0.513238
1.2936
0.0632871
0.018849
1.73958
0.595096
0.342703
1.11694
0.843722
1.03289
1.25878
1.59141
0.451223
0.487068
0.500901
1.23379
0.701117
1.21565
0.743908
0.837563
0.947422
0.583599
1.79936
1.00384
1.44632
0.429666
1.57028
0.331349
0.130662
1.93043
1.09158
1.06245
1.39887
1.21277
1.17833
2.87484
2.54393
0.642884
0.230676
0.519543
1.1958
0.867516
0.0971689
0.551364
1.12465
1.95019
0.925918
0.990637
0.364663
2.28188
1.32588
2.17515
1.25736
0.0956621
0.0109208
1.84265
0.805995
0.149239
1.01056
1.05365
1.86219
1.20107
0.676133
2.20706
2.48833
1.42559
1.12639
2.06824
0.627469
2.82114
1.751
1.5457
1.49998
1.04581
0.623078
0.317036
1.17558
1.56547
1.67152
0.192084
1.59184
0.679956
0.749773
1.24525
1.33662
1.06187
0.559506
0.203254
0.333189
1.43429
1.09233
0.596435
1.20469
1.63601
0.442222
1.17155
1.21114
1.3153
0.404465
1.86916
0.89432
1.46083
1.37193
1.58143
0.657085
1.05674
0.96146
0.517827
1.05601
0.709784
0.771513
0.906384
1.26642
2.95715
0.713888
1.13571
1.50431
1.25762
1.12031
1.33127
0.186524
1.47021
2.29379
0.847921
0.574754