/*--------------------------------*- C++ -*----------------------------------*\
| =========                 |                                                 |
| \\      /  F ield         | OpenFOAM: The Open Source CFD Toolbox           |
|  \\    /   O peration     | Version:  v2012                                 |
|   \\  /    A nd           | Website:  www.openfoam.com                      |
|    \\/     M anipulation  |                                                 |
\*---------------------------------------------------------------------------*/
FoamFile
{
    version     2.0;
    format      ascii;
    class       volScalarField;
    location    "100";
    object      aU;
}
// * * * * * * * * * * * * * * * * * * * * * * * * * * * * * * * * * * * * * //

dimensions      [0 0 0 0 0 0 0];


internalField   nonuniform List<scalar> 
65536
(
0.000658397
0.000153478
0.000650009
0.000649542
0.000707899
0.000461902
0.000920633
0.000666265
0.00063615
0.000347042
0.000573147
0.00103844
0.000604392
0.000911414
0.000452941
0.000230645
0.000478227
0.000605889
0.000292569
0.000600171
0.000971611
0.000899697
0.000413432
9.65651e-05
0.000563382
0.00101169
0.00106052
0.000696631
0.000582291
0.000245135
0.000199763
0.000229708
0.000458789
0.000777993
0.000784785
0.000597746
0.000420356
0.000801288
0.000539355
0.00033708
0.000475969
0.000302058
0.00031264
0.000242428
0.000648791
0.000545705
0.000766357
0.000527896
0.000164302
0.000286408
0.000524328
0.000635853
0.000111102
0.000671366
0.000565328
0.000487047
0.00029615
2.45428e-05
0.000187453
0.000467008
0.000718188
0.000529926
0.000328878
0.000365946
0.000462097
0.000734132
0.000386247
0.000153735
0.000641172
0.000998931
0.00072444
0.000792871
0.000314386
0.000623945
0.00053903
0.000267091
0.000440656
0.00046952
0.000763855
0.000571859
0.000197725
0.000254028
0.000347838
0.000665536
0.00053843
0.000457532
0.000483046
0.000309865
0.000504208
0.000305907
0.000507734
0.000304849
0.000267359
0.000683006
0.000708239
0.000348147
0.000288821
0.000383596
0.000636759
0.000283761
0.000459764
0.000470121
0.000229215
0.000226813
0.00074965
0.000622666
0.000796563
0.000536733
0.000439785
0.000438167
0.00067279
0.000340789
0.000535309
0.000398285
0.000824206
0.000684171
0.000845978
0.000689029
0.000393369
0.000560996
0.000648288
0.000667354
0.000418365
0.000754672
0.000429556
0.000202646
0.000451607
0.000575352
0.000534772
0.000653665
0.000586094
0.000385967
0.000153505
0.000431082
0.000363852
7.05941e-05
0.000130795
0.000387005
0.00051204
0.000650046
0.000414384
0.000448362
0.000400641
0.000422805
0.000216939
0.000239293
0.00069209
0.000459852
0.000329968
0.000799009
0.000779179
0.000523164
0.000559373
0.000296969
0.000179792
9.04945e-05
0.000258002
0.000209317
0.000455439
0.000405344
0.000552647
0.000643015
0.000865575
0.000437232
0.000115327
0.000213813
6.94251e-05
0.000476228
0.000298561
0.000715052
0.000410257
7.49073e-05
0.000647623
0.000830958
0.000440824
0.000575205
0.00051059
0.000291983
0.000782799
0.000297891
0.000702244
0.000514068
0.000217011
0.000347917
0.000858428
0.000712581
0.000576274
0.000465845
0.000578615
0.00073231
0.000455547
0.000333542
0.000295223
0.000248229
0.000415708
0.000514621
0.000841707
0.000919122
0.000652505
0.000434699
0.000489457
0.000289021
0.000474082
0.000731454
0.00120754
0.000931048
0.000459545
0.000539694
0.000440208
0.000488392
0.000249904
0.000274394
0.000590882
0.000617698
0.000628788
0.00077596
0.000665843
0.000269848
0.000505178
0.000655484
0.000381715
5.86168e-05
0.000469406
0.000297371
0.00038118
0.000487721
0.000717325
0.000658855
0.000380009
0.000324417
0.000390872
0.000828583
0.00076418
0.000958051
0.000639985
0.000328925
0.000225015
0.000449626
0.000487996
0.000394861
0.00041579
0.00042287
0.000484329
0.000653853
0.000851471
0.0010165
0.000761431
0.000651025
0.000631942
0.000487292
0.000764747
0.000981324
0.000493537
0.000769396
0.000328482
0.000757224
0.000551433
0.000300992
0.000361717
0.000465116
0.000161527
0.000524029
0.000775886
0.000675317
0.000180353
0.000213725
0.000322038
0.000365822
0.000467184
0.000499486
0.000344509
0.00083895
0.000696706
0.000473277
0.00027001
0.00017232
0.00015459
0.000621667
0.000653353
0.000504949
0.000343344
0.000313516
0.000400728
0.000810659
0.000620667
0.0007508
0.000518761
0.000823292
0.000774228
0.0002745
0.000632585
0.000442952
0.000719485
0.000387712
0.000452236
0.000405649
0.000271512
0.000211995
0.000442953
0.000500802
0.00034499
0.000138808
7.98905e-05
0.000475913
0.000327107
0.000534687
0.000469099
0.000309661
0.000144894
0.000104219
6.04396e-05
0.000364972
0.000851406
0.00035912
0.000520045
0.000321375
0.00051472
0.000334191
0.000642837
0.000640469
0.000618333
0.000554121
0.000396847
0.000445904
0.000214496
0.000375141
0.000237703
0.000271224
0.000203769
0.000648019
0.000665622
0.00046142
0.000506519
0.000386236
0.000179879
0.000380436
0.000386465
0.000474466
0.000222972
0.000335221
0.000385708
0.000676765
0.000492294
0.000264941
0.000678571
0.000970378
0.000713228
0.00066165
0.000103308
0.000283435
0.000333054
0.00043218
0.000390206
0.000361888
9.90237e-05
0.000201284
0.000594956
0.000679564
0.000646999
0.000476027
0.000169853
0.00020439
0.000288556
0.000210629
0.00025838
0.000249745
0.000264901
0.000317377
0.00042516
0.000483864
0.000434068
0.000517562
0.000405857
0.000450867
0.000173255
4.76766e-05
0.000114497
0.000319228
0.000388592
0.000634025
0.000581541
0.000595493
0.000280164
0.000641423
0.000773284
0.000636047
0.000207443
0.000449549
0.000595815
0.000527257
0.000436391
0.000489346
0.000387804
0.000286578
5.08907e-05
0.000226089
0.000294626
0.000491824
0.000384453
9.22004e-05
0.000327093
0.000177016
0.000259717
0.000305861
0.000671038
0.000330011
0.000405458
0.000213351
0.000379733
0.00040507
0.000403733
0.000405358
0.000480094
0.000443868
0.000444398
0.000748794
0.000371864
0.000522165
0.00036423
0.000416515
0.000470355
0.000194989
0.000373379
0.000190658
0.000465767
0.000560819
0.000683276
0.000725139
0.000331723
0.000264377
0.000318407
0.000322347
0.000475933
0.000294083
0.000223273
0.00011078
0.000273105
0.000458613
0.000707343
0.000655233
0.000164843
0.00064731
0.000407619
0.000102423
0.000183975
0.000160672
0.000350173
0.000321774
0.000445706
0.000250511
0.000518356
0.000663856
0.000805179
0.000708854
0.000413837
0.000137715
0.000450196
0.000624076
0.000612232
0.000396322
0.00012468
0.000344199
0.000543101
0.000551173
0.000429556
0.000455868
0.000602635
0.000393038
0.000214672
0.000487121
0.000441103
0.000559356
0.000272825
0.000532943
0.000444235
0.000309887
0.000111884
0.000387458
0.000574215
0.000519155
0.000533928
0.000871411
0.00100711
0.00117185
0.000808643
0.000548048
0.000199354
0.000321197
0.000793409
0.00104483
0.000324387
0.000588734
0.000774522
0.000472399
0.00040347
0.000243525
0.000648845
0.000584547
0.0005163
0.000289966
0.000484078
0.000653366
0.000746747
0.000745221
0.000590846
0.000447984
0.000483261
0.000444021
0.000572101
0.000410613
0.000477067
0.000498801
0.000952944
0.00102212
0.000391151
0.000614929
0.000524816
0.0011102
0.00115056
0.000850973
0.000268179
0.00087364
0.000231156
0.000180185
0.00142579
0.000651762
0.000440306
0.000283735
0.000230071
0.00066569
0.00107134
0.00108231
0.000507716
0.000532966
0.000998347
0.000272431
0.000875739
0.000584261
0.000664558
0.00106375
0.000398703
0.00053067
0.000721705
0.000216479
0.00110932
0.000767765
0.000671696
0.000182382
0.00103326
0.00010347
0.000506473
0.000696482
0.0006682
0.000438857
0.000107159
0.000424164
5.82781e-05
0.00112485
0.000311439
0.000445774
0.000205627
0.000414196
0.000394936
0.000194697
0.000914449
0.000219376
0.000171381
0.00015094
0.00049897
0.000435732
0.000666515
0.000107676
0.000609707
0.000540822
0.000346504
0.00028037
0.000899352
0.000416219
0.000350555
0.000434901
0.000325694
0.000491289
0.00140001
0.000570925
0.000476083
0.000754445
0.000433883
0.000351814
0.000209899
0.00116422
0.000336204
0.00047447
0.000280108
2.08134e-05
0.000817305
0.000253152
0.000562645
0.000386399
0.000373574
7.50676e-05
0.000229857
0.00120473
0.000321291
0.000227011
0.000136478
0.00079043
0.000513408
0.000540002
0.000172727
0.000348483
0.000488332
0.000606026
0.000654962
0.000477775
0.000200773
0.000293813
0.000322403
0.000846361
0.000381556
0.000804371
0.000425495
0.000311192
0.000495935
0.00143363
0.000423696
0.000322169
0.000215555
0.00141637
0.000960292
0.00068682
0.00106592
0.000906832
0.000270192
0.000389008
0.000746988
9.58881e-05
0.000534829
0.000459642
0.000295848
0.0010522
0.00092789
0.000327258
0.000719506
0.000395127
0.000196609
4.05251e-05
0.000299193
0.000492443
0.000733916
0.000113616
0.000639455
0.000249778
0.000638188
7.3673e-05
0.00067661
0.000266421
0.000296622
0.000244037
0.000578167
0.0006849
0.000847385
0.000345069
0.000715609
0.000576564
0.000362612
0.000551576
0.00014807
0.000557697
0.000404302
0.00041072
0.000464306
0.000429151
0.000211438
0.00113211
0.000410975
0.000411496
7.46435e-05
0.000195347
0.000561064
0.000663763
0.0010418
0.000584671
0.000496493
0.000559229
0.000398112
0.000176436
0.000859528
0.000128189
0.000685365
0.00107511
0.000330972
0.00139284
0.000167194
0.000301414
0.000556837
0.000564411
0.000269845
0.000710466
0.000490109
0.000619702
0.000520026
0.000866267
0.00017993
0.000298773
0.000638211
0.000813621
0.000282138
0.000186985
0.000862239
0.000703172
0.000953149
0.000550885
0.000246911
0.000376907
0.000360517
0.000956533
0.000588403
0.000813664
0.000798618
5.56164e-05
0.000556629
0.000793161
0.000676729
0.000584427
0.000223126
0.000899443
0.00110919
0.000824785
0.000147512
0.000658974
0.000500115
0.000492358
0.000388411
0.000557486
0.000292598
0.000336823
0.000329432
0.0011643
0.00101896
0.000571265
0.000391476
0.000266563
0.000670654
0.000264118
0.00115729
0.000772212
0.000869505
0.000215969
0.000185842
0.000196556
0.000438585
0.000438164
0.000759789
0.000489257
0.000246238
0.00113449
0.000742458
0.000645089
0.00136661
0.000830354
0.000467632
0.000558986
0.000695733
0.000411135
0.000930245
0.000364126
0.00114733
0.000259319
0.000689799
0.000563511
0.000512434
5.30533e-05
0.000629486
0.000843334
0.000456014
0.000243649
0.000966817
0.000379105
0.000325236
0.000803842
0.000541938
0.000221744
0.000898104
0.000133202
0.000836684
0.000655719
0.000298871
0.000706037
0.000593954
0.000353043
0.000785226
0.000844641
0.000865593
0.000333341
0.000374272
0.000390449
0.000775309
0.000257734
0.000819384
0.00099399
0.000826864
0.000903698
0.000592186
0.00135178
0.000652663
0.000130172
0.000446599
0.000689509
0.000119424
0.0001707
0.000300887
0.000266066
0.000685334
0.000349703
0.000429817
0.000539308
0.000730738
0.000371119
0.00034909
0.000348781
0.000157593
0.000293054
0.000267605
0.000685095
0.000294592
0.00122149
0.0007043
0.000432095
0.000649321
0.000701598
0.000476597
0.000965596
0.000630503
0.000582692
0.000430555
0.000696439
0.00100465
0.000195006
0.000126828
0.000661185
0.0012689
0.00046477
0.000584214
0.000997592
0.000670222
9.26384e-05
0.000149909
0.000197741
0.00102787
0.000802729
0.000543505
0.000536909
0.000814554
9.54714e-05
0.000663771
0.000786159
0.000824124
0.000757177
0.00142363
0.000319929
0.000571163
0.000316421
0.000368099
0.000445358
0.000431404
0.000132734
0.000396784
0.000453065
0.000579744
0.00112736
0.000283868
0.00015948
0.000437164
0.000564181
0.000374485
0.000656833
0.000119231
0.000137312
0.000698645
0.000436709
8.14392e-05
0.000628478
0.000682904
0.00076645
0.00107587
0.000330102
0.000280953
0.000176035
0.000141927
0.000149675
0.000664465
0.000448959
0.000884131
0.000399165
0.000604559
0.000730078
0.000539005
0.000191292
0.000823331
0.000306773
0.000140674
0.000453618
0.000586564
0.00117115
0.00135866
0.000474615
0.000258373
0.000545692
0.000412604
0.000112548
0.000142582
0.000625495
0.000208144
0.000281795
0.000301854
0.000574139
0.000328189
0.000899785
0.000532466
0.000728049
0.000270203
0.000453367
0.000713475
0.000759293
0.000499624
0.000383583
0.00059331
0.000398702
0.000729116
0.00018197
0.000476999
0.00020098
3.02083e-05
0.000913367
0.000302202
0.000172372
0.000124869
0.000796636
0.000622651
0.000485253
0.000964908
0.000254425
0.000230698
0.000559762
0.000366657
0.000275052
0.000781852
0.000634009
0.000426163
0.000391704
0.000685098
0.000356105
0.000738055
0.000164469
0.000264142
0.000310069
0.000104266
0.0001088
0.000237219
0.000569504
0.00055664
0.000257972
0.000256692
0.000699625
0.00087099
0.00084605
0.000244714
8.44601e-05
0.000195701
0.000849475
0.000806664
0.000396281
0.000334705
0.00014212
0.000885305
0.001036
0.000300616
0.000194398
0.000744431
8.59384e-05
0.000227756
0.000215879
0.0011317
0.000952361
0.000384367
0.000669514
0.00118721
0.000199587
0.000235414
9.81167e-05
0.00103315
0.000700314
0.000874953
0.000657209
0.000952244
0.000765587
0.000987001
0.000314278
0.000452952
0.00062562
0.000989279
0.000395441
0.000688672
0.000718436
0.000378907
0.000752979
0.000545921
0.000837112
0.000350934
0.000638799
0.000536056
0.00090747
0.000509676
0.00089856
0.00108548
0.000840312
0.00102287
0.000487782
0.000484478
0.000671141
0.000157311
0.000537865
0.000515475
0.00041735
0.00157069
0.000633367
0.000963585
0.000271893
0.000357119
0.000418848
0.000436183
0.000604419
0.00112786
0.000232543
0.000439253
0.000745725
0.000851545
0.00098163
0.000367238
0.000402478
0.000522236
0.000613552
0.000629359
0.00113786
0.000673348
0.00030977
0.000392199
0.000268316
0.000705951
0.000563194
0.000816393
0.000918213
0.00105841
0.000179143
0.000732657
0.000562597
0.00055613
0.00116474
0.00066621
0.000419042
0.000641278
0.000768051
0.000407835
0.000678182
0.000654991
0.000594922
0.000334005
0.000430318
0.000859588
0.000939708
0.000764329
0.000462921
0.000173633
0.000144855
0.000337746
0.000613625
0.000506494
0.0005758
0.00031105
0.000310156
0.000626039
0.000653509
0.000723419
0.00072729
0.000379906
0.000593249
8.52992e-05
0.00068285
0.000805071
0.000464609
0.000182019
0.000374585
0.000197494
0.000549056
0.00123272
0.00129088
0.00107304
0.000843954
0.000611401
0.000390129
0.000611135
0.0011758
0.000918051
0.000461098
0.000322249
0.000350973
0.000536234
0.000700089
0.000170714
0.00026782
0.000249447
0.00025488
0.000792589
0.000895676
0.000944927
0.000404924
0.000321533
0.000481338
0.000837236
0.000314939
0.000197426
0.000431929
0.000462119
0.000482169
0.000854465
0.000533036
0.000441405
0.000236391
0.000202958
0.000462651
0.000795682
0.000447646
0.000577923
0.000255556
0.00120817
0.00105237
0.00125483
0.000246728
0.000935519
0.000972097
0.00146336
0.00147288
0.00068086
0.000857534
0.000624862
0.000496403
0.000526558
0.000726979
0.000216721
0.000301423
0.000544499
0.000972467
0.0010749
0.0010864
0.000588176
0.000625505
0.000346658
0.000367692
0.000134714
0.000888796
0.000662321
0.000906086
0.000425827
0.000627146
0.000535939
0.000160824
0.000504753
0.000527261
0.000647439
0.000395291
0.000458977
0.000391372
0.000322824
0.000970213
0.000620221
0.000504917
0.000177317
0.000456277
4.48657e-05
0.000307168
0.00048707
0.000848285
0.000285274
0.000386934
0.000615918
0.000795437
0.000478774
0.000426839
0.000199169
0.000254406
0.000874479
0.000649341
0.000785681
0.000638398
0.00107439
0.00039949
0.000319814
0.000713025
0.000977366
0.001064
0.000545537
0.000813414
0.00167815
0.000820538
0.00100574
0.000359994
0.000166298
0.000463171
0.000646055
0.000677923
0.00076498
0.000295332
0.000262173
0.000634875
0.0006731
0.000488451
0.00063579
0.000838489
0.000709068
0.000569006
0.000611408
0.000926863
0.000800922
0.000930245
0.000289922
6.53385e-05
0.000681083
0.000727267
0.000856712
0.000778564
0.000581395
0.000786537
0.000612674
0.000353522
0.0001899
0.000852087
0.00076485
0.000599616
0.000376614
0.000980827
0.000890249
0.000438558
0.000622369
0.000665316
0.000209503
0.000225457
0.000556916
0.000215382
0.000723719
0.0010679
0.00107728
0.000693472
0.000693769
0.000326402
0.000340827
0.00102384
0.000739497
0.00116353
0.000728705
0.000462579
0.000202038
0.00015423
0.00032285
0.00039715
0.000865687
0.000778388
0.00116396
0.000667649
0.000852944
0.0012694
0.001375
0.00132343
0.000790178
0.000558194
0.000403908
0.000927989
0.000863073
0.00124372
0.000851143
0.000814128
0.00037096
0.000352447
0.000414647
0.000628348
0.000933166
0.000730078
0.000743824
0.000865989
0.000665067
0.00100597
0.000781124
0.00058384
0.000709325
0.000942062
0.000391737
0.000995851
0.000589835
0.000579336
0.00108413
0.000648896
0.000541764
0.000787201
0.000364111
0.00131218
0.00087116
0.000763932
0.000366633
0.000464314
0.000339
0.00077897
0.000875475
0.00108907
0.0013019
0.00120238
0.000328545
0.00136301
0.00108198
0.000795266
0.00045583
0.000635338
0.000470127
0.000140786
4.45081e-05
0.000321192
0.000306669
0.000388791
0.000948795
0.000511176
0.000696513
0.000244165
0.000114317
0.00017067
0.000439162
0.000321589
0.000229563
0.000495607
0.00057151
0.000815286
0.00127316
0.00105494
0.0010076
0.000439307
0.00102463
0.000743711
0.000467879
0.000857093
0.000902689
0.00110193
0.000759034
0.00101519
0.000248288
0.000963616
0.000696283
0.00148254
0.000659988
0.00108769
0.000579014
0.000237962
0.000178547
0.000870327
0.000865808
0.000955034
0.00118026
0.000591175
0.000618313
0.000804994
0.000555188
0.000494776
0.00114845
0.00146356
0.00135487
0.000709357
0.000747212
0.000399099
0.000554885
0.000435314
0.000235267
0.000499285
0.000456064
0.00040945
0.00104629
0.000916829
0.00073008
0.000373402
0.000241519
0.00083624
0.000321319
0.000530402
0.000501078
0.000522842
0.000510639
0.000350292
0.00063925
0.000620651
0.000697933
0.00141538
0.00094813
0.000918866
0.000199491
0.000233901
0.000109461
0.000519662
0.000376949
0.000387277
0.00049093
0.000990712
0.000227975
0.000914103
0.000400755
0.000696429
0.000767123
0.0004741
0.000269322
0.000263475
0.00115578
0.00159388
0.00140578
0.000960846
0.000254244
0.000694965
0.000506918
0.000202019
0.000327117
0.000507007
0.000690593
0.000182505
0.000565281
0.00034205
0.000812347
0.000577053
0.000424672
0.000427223
0.000855472
0.0003312
0.000542665
0.000594958
0.000798407
0.000690531
0.000486966
0.000650212
0.000612124
0.000727033
0.000416629
0.000420172
0.000591022
0.000260588
0.000717959
0.000270305
0.000415815
0.000359308
0.000489237
0.000903013
0.000766653
0.000993966
0.000345315
0.000428184
0.00021097
0.000766512
0.000822586
0.000517542
0.000788462
0.000700924
0.000544708
0.000167177
0.000218798
0.000446304
0.000205637
0.000205572
0.00027003
0.000122413
0.000355103
0.000689854
0.000653224
0.000499452
0.00049432
0.00072946
0.000570082
0.000721815
0.000643881
0.000440123
0.000466918
0.000708837
0.00102145
0.000748596
0.000489624
0.000678563
0.000801686
0.00093666
0.00103086
0.000366362
0.000547774
0.000601388
0.000295998
0.000376995
0.0010427
0.000809511
0.0012028
0.00111185
0.000726786
0.000843201
0.000199017
0.000670725
0.000988077
0.000402322
0.000452046
0.00124032
0.000832147
0.000382823
0.000575775
0.000862232
0.000625788
0.00025551
0.00100518
0.000237331
0.000411856
0.000930633
0.00067044
0.000561807
0.000322844
0.000507297
0.000176853
0.000454255
0.000892303
0.000772912
0.0001505
0.00129267
0.0009218
0.000914531
0.00052896
0.00114267
0.00032492
0.000746463
0.000578843
0.000221599
0.000790877
0.000846976
0.00152557
0.000951223
0.000706366
0.000298199
0.000317957
0.00063911
0.000106734
0.000363364
0.000548208
0.000641714
0.000129029
0.000774148
0.000430335
0.000568077
0.000441266
0.00048341
0.000367408
0.000311277
0.000264752
0.00121471
0.000373029
0.000133707
0.000213326
0.000115321
0.000309898
0.000906617
0.00079263
0.000176389
0.00108198
0.000365238
0.000172437
0.00057038
0.000586164
0.00139481
0.000521205
0.000205247
0.00020815
0.000936729
0.000567307
0.000239742
0.000876042
0.000320195
0.000230017
0.000817466
0.00100937
0.000314335
0.00109531
9.00613e-05
0.000259821
0.000467055
0.000600023
0.000395125
0.000282275
0.000569329
0.000153521
0.000528695
0.000638719
0.000439466
0.000577672
0.00110732
0.000268867
0.000135086
0.000195548
0.000917292
0.000314076
0.00099746
0.000287681
0.000143948
0.000373832
0.000676927
0.000588847
0.00140914
0.00116228
0.000672505
0.000497566
0.000506021
0.000863734
0.00060291
0.00137375
1.05074e-05
0.000447951
0.000320757
0.00029119
0.000664261
0.000113673
0.000101426
0.000134068
0.000139953
0.00102109
0.000459185
0.00114219
0.000447334
0.000392718
0.000259852
0.000635949
6.85585e-05
0.000294689
0.000400071
0.000264972
0.000402471
0.00096504
0.000605671
0.000463065
0.000677393
0.000106496
9.8083e-05
0.000640598
0.000448387
0.000624184
0.000500428
0.00131046
0.000590833
0.00111104
0.000752076
0.000382458
0.00113804
0.000925259
0.00140969
0.00012161
0.000660914
0.000575445
0.000439326
0.00011843
0.000762944
8.17957e-05
0.000226729
0.000451848
0.000850778
0.00085816
0.0011433
0.000366652
0.000656057
0.000128254
0.000258036
0.000709127
0.00119203
0.000618356
0.00113047
0.00028247
0.000631441
2.96999e-05
0.00031338
0.000342732
0.000919134
0.000908498
0.000387597
0.000529182
0.000267646
0.000338201
0.000792558
0.00052838
0.000695342
0.000604603
0.000458088
0.000495382
0.000434664
8.48578e-05
0.000965939
0.000598379
0.000238635
0.000490055
0.000308455
0.000648364
0.000196122
0.000461056
0.000456043
0.000826342
0.00059386
0.00029487
0.000830883
0.0010489
0.000410445
0.000159699
0.00132852
0.000147902
0.00112924
0.000514355
0.000305134
0.00151934
0.00028111
0.000790156
0.000357377
0.000102252
0.000257831
0.000624185
0.000827562
0.000747316
0.00046789
0.000244475
1.80869e-05
0.000798143
0.000708915
0.000639199
0.000526891
0.00122547
0.000626717
0.000443209
0.000719537
0.000492786
0.00110802
0.000309163
0.000685432
0.000747209
0.000287257
0.000959777
0.000374955
0.000262617
0.000942458
0.00033439
0.000555329
0.00034569
0.000318714
0.000779982
0.000218484
0.000376525
0.000404981
0.000987075
0.000143653
0.000835241
0.000246692
0.000286072
0.000170852
0.000389043
0.000463019
0.000499211
0.000731877
0.00127939
0.000371205
0.000508856
0.000606859
0.000484945
0.000833899
0.00125347
0.000826681
0.000819541
0.000647619
0.000443934
0.000421898
0.000268281
0.000242001
0.00110447
0.000549149
0.00135265
0.000536193
0.000336083
0.00158934
0.000853983
0.00131712
0.000887317
9.59964e-05
0.000323681
0.00111594
0.000215869
0.00123707
0.000596537
0.000742453
0.000264074
9.75655e-05
0.000394066
0.000731181
0.000690899
0.000618432
0.000658243
0.000931788
0.000454079
0.000890989
0.000692623
0.000410489
0.000445443
0.000741037
0.0004321
0.000713503
0.00046797
0.000360815
0.00112469
0.000496851
0.000221255
0.000628511
0.000471963
0.000974561
0.00112012
0.000649304
0.000474629
4.40848e-05
0.000465654
0.00047684
0.000880566
0.000734665
0.00120846
0.000962735
0.000402217
0.00109247
0.00115005
0.000828319
0.000607939
0.000290874
0.000612615
0.000161398
0.000312177
0.000219078
0.00053941
0.000362015
0.000804858
0.00043053
0.000415769
0.00043773
0.000472838
0.000284647
0.000481584
0.000139346
0.000191201
0.00075591
0.00062869
0.000552859
0.00145833
0.00137033
0.000820536
0.000358298
0.000992757
0.000295125
0.000187211
0.000520613
0.000909703
0.000992624
0.000171632
0.0008662
0.000308421
0.00089941
0.000355393
0.00133996
0.00118922
0.00040869
0.000899453
0.000393856
0.000132501
0.00108897
0.000648959
0.000937319
0.00137216
0.000403153
0.000610713
0.001002
0.000218101
0.000104928
0.000786034
0.00147461
0.0008535
0.000816113
0.000804144
0.000329578
0.000559941
0.000227633
0.000296937
0.000455206
0.000899082
0.000101008
0.00120322
0.00049711
0.000887585
3.9496e-05
0.000135327
0.000667676
0.000193152
0.000630798
0.000455955
0.000386695
0.000202859
0.000181525
0.000623207
0.00063711
0.000378387
0.00160909
0.000852267
0.00101517
0.000214426
6.56181e-05
0.000290355
0.000287015
0.000260164
0.000433533
0.000288434
0.000720142
0.000537475
0.000442775
0.000784102
0.000903828
0.000632389
0.000897907
0.000190153
0.000238475
0.00107782
0.00122765
0.00104291
0.000996382
0.000614133
0.000542946
0.000543588
0.000390825
0.000268447
0.00017972
0.000639916
0.000373814
0.000634397
0.000663023
0.000847876
0.000411758
0.00017564
0.000578428
0.000560448
0.000344112
0.000570415
0.000255857
0.00089723
0.000722468
8.6943e-05
0.000548115
0.00035399
0.000716177
0.000844962
0.00061428
0.000208128
0.000515008
0.000480433
0.000428791
5.5574e-05
0.000470805
0.00022574
0.00102105
0.00023863
0.000920502
0.000520641
0.000132535
0.000471754
0.000859233
0.000531557
0.000997685
0.000875324
0.000561548
0.00010259
0.000156269
0.000180417
0.000124765
0.000374184
0.000393292
4.56666e-05
0.000353856
0.000136701
0.000774762
0.000434226
0.000838353
0.000695291
0.000259899
0.000144198
0.000862725
0.000576965
0.000696863
0.00016937
0.000584127
0.00107368
0.000543209
0.00108284
0.000874254
0.000345308
0.000574791
0.000856761
0.00056154
0.000194614
0.000722216
0.000515705
0.000214227
0.00128221
0.000515384
0.00129821
0.00101322
0.000141344
0.00095282
0.000168294
0.000871248
0.00061961
0.00043972
0.000612361
0.000982975
0.000795529
0.000147244
0.000625288
0.00075091
0.000858949
0.000166475
0.000769038
0.000188029
0.00078536
0.000574251
0.000933107
0.000436893
7.10065e-05
0.000347857
0.000373761
6.26206e-05
0.00122968
0.000500226
0.000383947
0.000703639
0.00145986
0.000481609
0.000495681
0.00118017
0.000415469
0.000542134
0.000491052
0.000742953
0.00063909
0.00131626
0.00200494
0.000997146
0.00117911
0.000683502
0.000360226
0.000581133
0.000229068
0.000217445
0.000245808
0.000260856
0.000319943
0.000940715
0.000176121
0.000890938
0.000652387
0.000344514
0.000198188
0.000204412
0.000384208
0.0013577
0.000373902
0.000387657
0.000333816
0.000183973
0.000462046
0.0010324
0.000696557
0.000315563
0.000958841
0.000243191
0.000330241
0.00030674
0.00131149
0.0012984
0.000408899
0.000285768
0.000342379
0.00113162
0.000633416
0.000441845
0.00109041
0.000250318
0.00050784
0.000836997
0.00142496
0.00013823
0.00106989
0.000136533
0.000231322
0.000698295
0.000511403
0.000224858
0.000398274
0.000653316
0.000315604
0.000579421
0.000730094
0.000272279
0.000441665
0.000945144
0.000173968
0.000242264
0.000205843
0.000877131
0.000349849
0.00100973
0.000395206
0.000379842
0.000487404
0.000578914
0.000494081
0.00137379
0.00108943
0.000397638
0.000707455
0.000494646
0.00096776
0.000388147
0.00153703
0.000363193
0.000179282
0.000515763
6.615e-05
0.000820567
8.03128e-05
0.000154586
0.000194076
0.00021195
0.00102607
0.000763702
0.00124463
0.000340602
0.000741409
0.000408971
0.000443439
0.000281984
0.000310453
0.000604545
0.000656189
0.000287206
0.00118056
0.000774915
0.000449635
0.000638484
0.00026668
1.71077e-05
0.000254592
0.000744996
0.000402369
0.000945647
0.00120345
0.00128104
0.00071469
0.00109088
0.000765932
0.000815449
0.000639087
0.00140312
0.00041539
0.000617171
0.000452516
0.000539288
0.000174461
0.000797542
0.000120508
0.000155112
0.00034113
0.00083626
0.000762694
0.00120861
0.000434161
0.000673515
0.000131148
7.49026e-05
0.000989997
0.00122589
0.000818572
0.00108126
0.000161508
0.000576557
0.000476129
0.000181743
0.000640519
0.000874903
0.000935333
0.000541298
0.000484387
0.00023546
0.000596781
0.000770969
0.000759233
0.000995361
0.000424171
0.000935951
0.00041899
0.00070423
0.000385594
0.00102559
0.000653084
0.000393932
0.000391984
0.000400941
0.000575834
0.000200228
0.000266544
0.000807378
0.000848914
0.000519602
0.000447142
0.00127399
0.00117136
0.000554154
0.000597031
0.0011751
0.00077423
0.000775172
0.000113989
0.000361738
0.00120943
0.000771303
0.000563514
0.00038665
0.000227616
0.000194931
0.000917296
0.000746695
0.0009015
0.000515749
0.000362205
0.000254787
0.000636295
0.00103349
0.000834205
0.000360073
0.00139345
0.000884155
0.000312344
0.000814433
0.000455916
0.00117638
0.000585425
0.000804395
0.000763668
0.000295666
0.00117211
0.000556532
0.000388982
0.00118265
0.00014155
0.000705871
0.000642921
0.000310576
0.00113115
0.000160956
0.000339129
0.000219524
0.00105406
0.000371853
0.000759364
0.000219994
0.000344446
0.000230407
0.000806095
0.000442872
0.000627003
0.000326825
0.00114975
0.000479638
0.000863642
0.000842556
0.000540203
0.000232164
0.00139356
0.000565703
0.000683238
0.000678957
0.000528049
0.000544462
0.000407534
0.00019131
0.00103874
0.00112349
0.00158385
0.000745346
0.000456072
0.00178115
0.000776133
0.00116738
0.000775326
0.000375459
0.0003591
0.00130883
0.000388284
0.0013789
0.000718339
0.000386892
0.000332802
0.000107988
0.000417411
0.000794515
0.000574199
0.000676226
0.000416904
0.0007352
0.000320048
0.000607698
0.000322554
0.000270227
0.000391819
0.000244927
0.000279771
0.000543074
0.000348748
0.0004733
0.00106974
0.00041682
0.000396167
0.000318488
0.000666206
0.00049228
0.00102228
0.000786963
0.000461407
0.000422312
0.000390099
0.000498993
0.000727899
0.000912471
0.00096982
0.000781733
0.00051421
0.000775895
0.00136866
0.000815583
0.000812736
0.000441623
0.000683207
0.000252489
0.000683656
0.000284241
0.000365775
0.000667043
0.000881546
0.000692559
0.000554953
0.00042819
0.00019914
0.000443303
0.00052692
0.000281914
0.000570316
0.000755142
0.000863884
0.000140929
0.00202994
0.00165256
0.00107676
0.000498302
0.00112317
0.000540917
0.000489303
0.00024892
0.0010752
0.000917369
0.000569924
0.000654747
0.000574504
0.000918989
0.00023278
0.000934352
0.001328
0.000541791
0.000462947
0.000418076
0.000352731
0.00130712
0.000545935
0.00129422
0.00166625
0.000472005
0.000833288
0.00132471
0.000324009
0.00013564
0.000927902
0.00137527
0.00103081
0.000843186
0.000542994
0.00060005
0.000334208
0.000545894
0.000432077
0.000333724
0.000862187
0.000748401
0.000953546
0.000469655
0.000727354
0.00056832
0.000178818
0.000960591
0.000343726
0.000710435
0.000338742
0.000447119
4.90467e-05
0.000262579
0.000520198
0.000816668
0.000714669
0.00161087
0.00113171
0.00116075
0.000215676
0.00039142
0.000178621
0.000174303
0.000353908
0.000636709
0.000238677
0.000613498
0.000750153
0.000219938
0.00107038
0.00111808
0.000886679
0.000770731
0.000621286
0.000399463
0.000810276
0.00158775
0.000745254
0.00101858
0.00096807
0.000632288
0.000447844
0.000306211
0.000215823
7.64424e-05
0.000807042
0.000504864
0.000490967
0.000994385
0.000779758
0.000700428
0.000274434
0.000858944
0.000516386
0.000176128
0.000790516
0.000164854
0.00113052
0.000816632
0.000160775
0.000533531
0.000279817
0.000859491
0.000828314
0.00067922
0.000420278
0.000425679
0.000413643
0.00054606