/*--------------------------------*- C++ -*----------------------------------*\
| =========                 |                                                 |
| \\      /  F ield         | OpenFOAM: The Open Source CFD Toolbox           |
|  \\    /   O peration     | Version:  v2012                                 |
|   \\  /    A nd           | Website:  www.openfoam.com                      |
|    \\/     M anipulation  |                                                 |
\*---------------------------------------------------------------------------*/
FoamFile
{
    version     2.0;
    format      ascii;
    class       volScalarField;
    location    "100";
    object      he_filtered;
}
// * * * * * * * * * * * * * * * * * * * * * * * * * * * * * * * * * * * * * //

dimensions      [0 2 -2 0 0 0 0];


internalField   nonuniform List<scalar> 
65536
(
1254.05
1254.5
1258.04
1261.53
1262.65
1264.09
1264.78
1266.35
1267.06
1265.71
1263.69
1259.18
1256.04
1250.28
1250.18
1247.14
1247.11
1246.46
1244.42
1241.22
1236.77
1227.57
1218.27
1209.25
1202.83
1194.27
1188.32
1185.46
1182.46
1181.73
1181.55
1183.02
1182.58
1184.48
1184.58
1186.58
1186.86
1187.58
1188.8
1189.14
1186.28
1182.71
1178.38
1171.7
1163.73
1156.89
1152.51
1148.11
1145.85
1144.02
1143.29
1144.01
1143.82
1142.86
1140.34
1138.67
1136.45
1137.2
1134.28
1134.02
1134.07
1132.69
1130.2
1125.19
1120.05
1113.73
1109.05
1102.49
1099.38
1098.63
1100.99
1103.51
1104.4
1103.59
1103.69
1103.31
1105.92
1108.11
1108.79
1110.88
1110.77
1111.15
1112.06
1112.04
1109.37
1107.96
1108.22
1109.98
1111.09
1112.77
1114.03
1114.11
1112.88
1112.86
1113.57
1112.77
1112.65
1112.92
1114.55
1115.54
1116.61
1116.54
1115.47
1115.83
1112.76
1111.74
1109.74
1109.62
1108.35
1107.17
1106.17
1104.92
1104.19
1102.65
1102.85
1100.65
1101.58
1102.65
1105.2
1108.23
1114.36
1120.23
1126.12
1131.43
1134.83
1137.11
1140.08
1142.17
1142.87
1144.85
1145.25
1147.85
1148.15
1146.76
1144.76
1144.4
1141.6
1141.56
1140.19
1137.46
1134.65
1133.13
1130.58
1130.61
1128.31
1126.54
1123.49
1120.81
1117.65
1115.45
1111.9
1108.79
1108.81
1108.25
1110.85
1114.11
1121.75
1129.51
1137.97
1146.73
1153.77
1160.42
1164.5
1166.58
1168.42
1166.47
1164.13
1159.62
1153.56
1145.72
1137.75
1130.25
1121.86
1116.29
1109.24
1103.1
1100.26
1095.93
1094.15
1094.89
1096.92
1101.06
1104.56
1112.49
1117.06
1122.97
1127.55
1129.12
1128.7
1127.5
1125.09
1120.6
1117.19
1113.77
1112.8
1114.18
1117.32
1122.44
1128.97
1134.11
1138.72
1143.52
1147.05
1149.82
1151.85
1152.31
1151.9
1153.02
1151.56
1152.34
1152.22
1151.82
1150.12
1147.32
1143.74
1141.28
1140.24
1138.81
1135.28
1132.47
1127.15
1124.76
1121.53
1120.04
1117.67
1116.78
1117.34
1118.69
1118.69
1120.56
1121.34
1121.46
1119.76
1119.24
1116.91
1115.24
1112.52
1109.72
1107.84
1104.43
1105.22
1106.27
1109.84
1113.18
1117.08
1118.9
1119.49
1119.43
1116.41
1112.5
1109.71
1108.25
1109.83
1111.86
1114.41
1117.08
1120.7
1122.35
1124.46
1127.03
1127.95
1127.24
1124.42
1120.5
1117.95
1112.19
1108.69
1109.36
1106.28
1108.04
1113.91
1120.6
1126.33
1131.18
1133.76
1133.23
1131.88
1128.25
1122.88
1119.47
1119.32
1118.34
1121.75
1125.5
1128.39
1130.42
1131.74
1131.17
1132.94
1134.77
1135.81
1136.28
1135.85
1132.93
1128.38
1122.71
1119.2
1113.86
1109.83
1106.01
1102.48
1096.95
1092.51
1088.39
1084.75
1085.54
1086.86
1090.92
1096.71
1100.41
1103.23
1102.72
1102.43
1101.25
1101.38
1099.66
1099.94
1101.12
1100.59
1102.47
1103.23
1104.99
1105.35
1105.13
1104.82
1103.24
1099.55
1097.63
1095.68
1096.08
1095.93
1099.56
1106.56
1112.93
1116.54
1118.76
1119.5
1119.06
1119.57
1119.6
1119.67
1120.73
1122.22
1122.36
1121.45
1118.95
1115.93
1114.46
1112.1
1110.06
1107.91
1105.72
1102.55
1099.2
1098.27
1096.62
1097.98
1097.53
1098.34
1101.38
1105.4
1108.84
1111.94
1113.32
1115.45
1116.21
1117.03
1117.15
1119.06
1119.32
1118.98
1118.72
1119.34
1121.17
1122.56
1124.58
1124.88
1125.2
1123.88
1122.46
1120.31
1116.76
1113.14
1110.02
1106.21
1103.11
1100.97
1097.35
1096.61
1095.35
1093.31
1091.12
1089.66
1088.32
1090.46
1093.44
1101.16
1107.27
1111.86
1116.86
1117.31
1116.24
1113.29
1111.42
1108.2
1105.61
1103.68
1105.89
1106.89
1108.95
1112.12
1115.48
1118.03
1119.06
1119.22
1119.64
1119.06
1118.77
1118.68
1116.12
1113.8
1112.47
1112.08
1112.15
1112.43
1114.81
1116.36
1117.98
1118.11
1116.98
1115.03
1109.53
1103.08
1098.51
1092.84
1089.58
1084.67
1081.66
1080.61
1079.79
1079.87
1079.99
1082.55
1084.84
1087.28
1091.03
1093.32
1094.06
1094.33
1096.59
1100.14
1101.38
1105.38
1108.76
1112.56
1115.78
1116.93
1115.49
1114.67
1112.19
1113.21
1111.48
1111.31
1110.66
1109
1105.87
1102.12
1097.06
1093.56
1093.03
1093.5
1096.53
1099.28
1104.22
1107.6
1108.67
1108.45
1104.44
1098.89
1090.96
1081.66
1072
1066.98
1059.26
1057.27
1052.74
1049.27
1046.86
1048.15
1052.62
1058.79
1065.31
1071.7
1077.33
1081.79
1084.96
1087.15
1091.23
1091.85
1092.9
1092.42
1092.5
1091.31
1089.18
1087.22
1083.99
1080.27
1075.05
1068.18
1062.92
1057.53
1055.3
1096.57
1107.67
1111.74
1114.92
1121.27
1121.38
1124.54
1124.22
1120.33
1120.19
1115.11
1111.14
1099.13
1099.7
1088.56
1096.92
1099.55
1101.13
1099.99
1092.59
1079.54
1079.96
1076.12
1067.95
1048.73
1046.66
1041.33
1035.6
1036.34
1037.47
1038.88
1037.25
1043.33
1040.89
1048.53
1044.51
1045.69
1048.52
1047.45
1043.65
1046.14
1041.54
1032.28
1025.96
1018.36
1011.19
999.15
999.003
998.868
1001.42
1002.5
1002.96
1004.04
1002.83
1002.3
995.794
993.281
980.749
988.804
990.211
990.29
991.373
988.66
987.854
978.625
968.459
952.416
949.074
945.379
952.459
953.824
955.789
957.549
958.911
953.916
952.825
954.022
958.985
962.708
957.604
964.853
967.856
968.392
964.615
964.842
960.276
962.895
965.2
971.033
972.739
970.754
970.16
970.261
969.838
966.09
970.616
970.606
970.469
971.358
975.905
975.536
976.211
973.388
963.519
968.484
965.94
966.081
962.121
964.037
966.503
967.339
965.742
962.493
959.162
950.522
957.396
956.491
958.959
963.463
967.734
967.914
974.41
981.938
986.392
992.328
995.44
995.435
994.294
996.24
994.06
999.443
999.027
1003.09
1004.7
1000.88
991.645
997.442
993.203
993.945
995.249
993.873
989.866
991.014
984.248
986.87
983.746
984.367
979.422
974.651
968.943
968.929
967.784
959.076
964.254
965.389
973.072
971.276
982.993
995.688
1005.71
1017.01
1019.54
1022.78
1027.5
1024.35
1027.6
1025.06
1018.2
1009.24
1001.34
996.314
988.561
984.668
970.556
966.484
960.094
946.708
952.599
954.594
955.285
953.441
950.084
962.67
962.873
977.327
981.99
985.882
988.101
991.004
988.499
983.883
983.165
974.687
965.727
960.32
967.327
978.062
986.181
987.51
990.061
989.833
988.296
997.184
1004.87
1008.12
1009.92
1009.78
1003.06
1006.95
1006.36
1009.91
1008.98
1006.17
1004.12
1001.83
1001.85
997.336
992.439
991.625
985.201
987.374
978.488
973.352
966.573
971.004
974.415
970.163
966.338
975.052
977.332
979.664
981.114
982.374
976.494
975.034
971.641
967.106
962.586
952.998
955.702
952.721
960.614
966.52
973.017
974.639
978.784
979.095
973.708
971.592
969.554
967.142
966.366
965.597
969.768
973.363
976.387
974.685
981.739
981.922
980.775
979.19
978.622
979.177
974.132
961.319
964.807
963.074
950.52
957.333
958.649
965.636
975.547
984.738
989.619
991.641
993.102
986.713
980.518
977.363
971.621
962.405
974.103
978.25
983.736
988.903
990.677
987.837
991.787
991.52
993.992
998.775
999.674
995.57
992.846
988.145
986.258
974.012
971.807
963.853
961.535
955.39
957.15
948.93
942.804
942.364
934.833
942.994
949.723
956.021
963.084
963.793
968.297
961.108
957.382
949.774
956.639
959.512
957.235
962.677
960.661
961.74
959.907
962.438
961.409
962.725
960.56
961.163
951.582
945.795
938.339
948.229
957.745
960.466
965.07
972.719
976.32
979.316
979.093
976.537
977.061
978.518
978.548
976.813
980.906
976.71
975.768
977.244
969.461
966.946
967.09
966.44
962.699
956.951
951.052
943.151
950.146
949.388
956.7
960.554
957.606
959.798
963.201
963.913
968.982
968.958
973.127
974.957
980.032
976.092
978.432
978.946
978.994
979.031
979.732
982.976
984.481
988.065
986.108
986.376
981.714
977.855
977.802
975.75
970.41
964.943
955.861
947.519
956.463
956.368
956.311
954.818
949.737
944.184
943.223
939.227
950.805
954.782
965.012
974.334
971.719
976.373
972.489
970.713
959.765
961.402
964.182
964.139
954.619
959.013
966.07
970.728
972.233
973.446
977.603
980.006
977.199
979.195
977.722
972.379
974.206
972.284
964.378
958.681
961.639
968.719
967.992
968.086
969.04
972.654
973.48
967.51
967.193
965.418
951.957
944.78
934.84
938.7
942.439
943.7
942.367
938.002
938.443
939.691
942.589
949.664
950.415
951.619
953.145
953.126
950.425
945.742
956.346
960.746
968.802
970.292
971.468
972.142
976.288
972.174
972.467
961.074
968.97
969.591
970.063
966.82
962.727
957.38
956.591
951.999
943.164
948.175
951.4
960.046
960.649
963.584
967.43
963.368
962.517
953.665
944.687
933.752
925.51
910.229
912.666
900.478
902.147
902.979
902.225
900.504
906.818
914.709
922.855
928.266
933.115
936.493
938.099
939.814
934.214
941.703
945.847
950.457
949.267
948.83
950.081
945.233
943.105
937.499
931.604
930.578
919.675
911.402
899.326
807.241
808.512
819.029
821.452
815.575
816.888
809.658
812.262
825.194
828.572
825.744
811.046
804.904
790.489
794.332
797.001
804.1
812.833
814.695
809.116
804.285
790.255
779.027
766.251
764.914
750.176
748.129
746.171
747.172
746.181
749.382
751.723
743.749
752.255
742.018
751.331
752.065
751.37
758.291
765.931
758.683
756.197
753.245
738.411
727.306
714.257
707.569
706.635
706.237
708.36
711.569
714.25
716.174
712.694
704.547
704.67
692.06
694.985
694.649
702.982
707.24
707.133
705.501
691.832
688.717
681.764
675.314
657.636
645.652
646.753
663.517
670.798
671.156
662.231
656.942
641.914
658.186
663.896
662.211
668.531
667.705
675.835
682.206
685.756
672.074
664.739
669.969
679.835
681.122
684.233
689.924
684.255
678.92
674.439
680.436
675.057
673.666
673.827
678.751
678.8
688.016
685.222
681.866
681.09
676.696
677.323
672.509
671.937
673.744
675.12
672.435
670.808
670.667
669.025
668.692
668.821
675.373
675.92
667.303
673.063
684.455
692.114
692.505
696.725
697.343
698.845
701.8
705.12
698.797
705.537
706.746
718.284
719.435
714.932
709.994
708.782
703.216
712.435
708.778
700.156
692.908
692.723
690.549
701.048
699.84
703.586
693.498
689.164
685.498
686.945
681.489
672.52
672.322
674.316
681.532
672.04
680.082
696.055
713.481
726.971
726.905
736.414
743.943
742.166
749.319
743.642
735.253
732.565
724.291
712.65
699.357
691.023
679.752
688.613
676.329
664.77
662.862
649.974
650.776
647.769
654.94
662.539
656.246
677.124
678.052
692.789
698.036
705.342
698.834
700.025
697.517
683.716
681.265
676.625
661.632
667.111
669.562
676.156
693.157
700.094
702.491
706.422
710.896
717.275
720.132
714.523
707.464
709.874
707.023
715.588
717.968
722.479
722.962
712.581
703.899
696.457
702.5
707.677
702.498
700.04
684.048
685.246
675.796
665.193
675.346
677.529
681.73
681.659
682.371
693.224
699.639
693.378
685.941
686.985
684.732
685.611
686.233
675.974
673.628
665.739
663.602
669.326
675.618
686.013
696.123
697.241
697.117
693.92
682.901
671.543
666.048
663.379
665.868
672.242
682.536
686.067
691.019
682.93
691.064
692.075
697.962
698.427
689.53
681.011
673.659
666.107
662.37
663.214
649.773
642.205
665.218
681.255
696.917
706.617
711.048
707.259
706.02
696.792
678.682
665.334
666.911
671.397
691.98
702.04
704.481
702.148
702.493
695.739
700.378
706.164
706.962
709.649
714.078
707.399
701.268
683.887
687.577
675.816
677.215
672.935
674.23
655.914
660.227
655.35
644.99
649.692
647.412
657.159
667.297
674.222
679.209
668.413
677.01
669.265
669.057
663.162
664.397
672.279
667.172
673.671
678.569
680.324
675.217
681.932
673.194
669.584
656.839
658.759
647.441
644.292
646.591
651.778
671.73
685.734
690.378
691.496
685.377
685.388
686.914
683.807
685.47
687.407
691.566
678.019
686.6
687.496
671.191
675.151
673.681
674.526
675.894
674.372
668.51
656.214
650.334
649.564
657.218
647.597
643.476
656.172
662.661
670.137
679.207
682.702
688.399
684.333
686.675
683.705
694.505
691.914
694.913
693.935
692.922
697.311
700.309
700.078
698.671
702.566
701.485
700.932
699.131
693.681
689.627
684.077
675.85
668.127
661.927
653.8
661.32
664.678
664.204
666.228
658.492
648.014
645.831
645.34
665.203
673.79
674.498
690.137
686.039
685.214
668.698
672.849
671.113
665.292
661.752
673.242
676.877
680.102
684.659
690.472
694.273
691.98
690.745
691.517
683.356
679.365
687.999
683.427
676.658
673.527
666.068
670.199
669.523
674.602
677.258
686.1
686.678
684.818
685.079
673.558
658.815
664.007
653.669
640.866
643.052
643.589
644.004
647.973
651.087
648.654
649.919
659.115
655.993
661.641
664.297
659.705
653.601
652.185
663.929
666.191
678.394
680.836
687.873
687.76
689.28
682.596
679.472
663.678
670.863
672.272
686.563
686.798
686.557
681.186
674.377
659.404
649.865
653.932
651.027
660.149
662.277
676.815
684.411
685.96
690.847
679.568
674.742
660.068
643.495
626.732
623.878
610.264
619.079
617.781
610.265
605.245
611.888
618.529
629.401
637.374
642.648
650.586
655.446
655.956
651.507
658.052
655.772
661.115
658.719
658.146
655.686
647.694
654.388
651.639
647.134
642.609
627.395
626.25
617.851
618.729
374.212
408.921
423.335
428.445
432.28
426.071
423.055
428.1
429.035
425.043
418.116
408.964
373.792
380.418
340.163
392.827
415.761
420.726
418.97
404.335
364.329
393.437
398.537
384.039
331.674
353.452
356.794
355.487
354.948
361.371
363.831
356.477
354.688
350.568
360.3
352.83
341.733
366.344
377.308
374.315
380.618
371.222
354.18
343.684
320.597
315.739
272.132
310.042
319.272
318.231
310.271
332.004
336.842
333.816
319.724
307.981
300.357
258.978
300.516
318.396
326.141
329.438
324.54
327.354
312.348
288.934
244.148
247.27
211.37
261.765
274.57
280.233
277.957
267.283
251.936
199.279
254.06
276.081
279.883
245.635
278.113
284.215
298.126
297.553
292.821
247.997
285.951
297.946
307.285
310.309
300.078
295.867
278.324
286.687
287.625
291.388
282.243
271.464
284.93
301.708
302.806
310.731
299.532
256.981
292.651
298.752
296.832
282.672
289.88
294.944
295.142
285.951
294.239
286.158
243.531
283.084
288.146
286.821
289.029
282.389
282.318
287.434
305.179
309.238
310.1
302.182
310.482
304.042
304.541
295.672
296.795
309.746
328.356
333.603
318.497
279.181
310.076
313.14
315.931
306.433
291.974
298.721
296.962
298.354
308.405
305.581
314.889
304.425
292.842
294.353
300.145
292.026
249.256
282.828
287.42
290.853
252.695
298.026
326.704
338.531
357.186
355.823
355.806
363.87
351.387
356.688
363.941
354.716
337.205
314.672
315.429
306.849
302.838
289.803
293.926
280.332
235.276
266.66
273.484
277.118
264.628
245.719
269.616
270.517
293.624
308.789
327.116
323.927
331.711
326.094
319.741
313.802
302.266
273.106
217.181
268.664
289.138
301.823
313.344
316.721
302.678
268.907
307.214
327.544
332.812
331.664
321.797
309.771
310.327
316.379
335.102
340.529
333.278
320.821
299.629
312.786
316.714
313.865
315.195
301.401
297.915
292.764
277.779
228.844
285.182
303.09
287.291
257.892
301.191
315.512
315.898
322.015
318.733
302.691
285.503
289.569
284.439
277.486
243.83
261.706
235.57
279.888
300.589
305.413
309.37
313.805
309.1
301.948
296.021
286.687
278.751
270.935
276.79
294.723
301.701
305.873
306.081
313.891
309.617
311.955
296.817
309.915
314.868
295.092
241.428
274.755
272.871
229.939
251.835
202.979
268.686
294.256
310.956
323.534
325.41
328.95
316.623
304.369
296.189
278.802
227.97
285.049
304.211
320.81
330.041
330.839
319.205
311.67
311.539
321.124
335.102
341.682
334.958
331.918
311.382
302.414
291.576
286.155
257.664
276.67
273.05
282.579
269.722
259.861
248.778
232.153
254.177
261.912
289.529
305.251
301.606
302.794
280.009
269.928
245.555
277.484
291.485
281.726
278.883
282.593
282.21
283.204
292.302
285.128
290.496
279.092
268.694
257.018
246.344
210.153
240.098
258.062
279.345
291.322
303.061
306.823
307.015
306.454
308.272
313.399
309.351
311.752
300.886
300.321
296.676
283.888
292.864
278.823
262.183
277.604
288.518
292.038
280.855
255.339
211.217
254.004
259.046
267.782
260.532
243.74
267.869
278.609
286.347
295.085
293.768
304.027
308.545
315.978
314.359
323.003
314.52
309.766
300.926
307.991
315.511
324.05
332.43
330.725
323.311
324.139
316.54
314.309
309.19
306.155
299.454
276.45
231.288
278.559
296.6
300.242
297.303
282
270.174
250.559
211.114
246.198
267.846
284.989
293.633
296.586
308.056
297.82
289.52
248.691
278.214
289.641
281.999
251.342
274.929
292.79
299.346
301.28
300.056
301.097
297.886
301.113
305.235
308.286
297.188
302.659
301.35
275.219
230.762
262.402
280.823
274.402
264.456
276.231
291.201
292.829
286.957
286.774
280.062
263.063
247.157
204.185
246.615
260.002
272.219
266.821
249.631
233.833
255.18
260.164
276.545
280.738
277.803
269.243
255.105
255.308
231.604
269.511
282.729
298.547
305.025
304.218
301.973
307.559
294.925
283.743
240.152
285.701
293.003
302.862
297.449
291.109
283.105
281.343
265.864
231.22
261.708
266.085
271.65
280.395
290.656
299.15
293.507
301.053
283.056
262.929
243.101
219.396
193.026
215.565
187.583
212.812
221.437
207.074
194.808
218.987
241.469
250.063
257.673
262.642
266.752
263.671
257.381
226.625
252.305
262.711
273.883
276.031
272.496
276.3
274.986
272.125
265.959
258.505
258.226
248.269
233.611
187.845
-132.299
-65.3449
-41.1938
-40.8782
-70.523
-72.3574
-115.329
-99.3039
-58.8819
-38.9239
-39.9734
-73.2421
-143.304
-115.745
-156.587
-89.3835
-60.2742
-31.5551
-23.5018
-53.4284
-125.194
-72.3513
-66.327
-88.8283
-159.165
-128.447
-115.161
-122.369
-112.399
-113.247
-101.056
-104.239
-148.054
-110.185
-142.724
-110.892
-168.66
-123.552
-91.539
-80.6572
-79.6146
-81.6912
-92.1215
-118.884
-169.556
-143.011
-188.136
-141.816
-152.687
-135.644
-176.938
-126.892
-109.064
-126.292
-175.517
-151.263
-180.542
-223.738
-153.913
-139.585
-143.242
-123.369
-120.408
-149.553
-139.982
-156.465
-230.418
-194.708
-247.629
-214.442
-175.385
-169.029
-175.628
-223.857
-195.316
-243.911
-186.298
-181.162
-185.683
-222.12
-182.325
-193.52
-147.29
-131.592
-148.916
-193.779
-159.389
-144.363
-147.013
-135.984
-132.952
-154.811
-208.7
-179.454
-180.579
-179.006
-193.966
-234.515
-179.136
-165.857
-139.205
-140.042
-152.011
-207.88
-161.215
-166.114
-177.219
-209.149
-169.24
-161.219
-175.971
-211.433
-170.641
-160.414
-214.016
-163.269
-160.228
-168.194
-198.7
-192.857
-177.234
-162.017
-160.511
-167.137
-163.521
-200.217
-157.026
-155.362
-193.612
-179.123
-206
-145.04
-114.428
-113.355
-134.259
-198.884
-150.822
-135.753
-138.544
-155.637
-215.318
-183.992
-205.266
-154.11
-142.003
-134.391
-154.324
-166.547
-205.333
-173.675
-152.207
-162.756
-209.793
-156.112
-145.107
-167.675
-210.66
-146.839
-117.467
-95.4368
-104.791
-102.58
-91.8825
-101.662
-92.6267
-92.445
-96.8469
-99.4645
-119.672
-178.119
-159.972
-173.931
-203.772
-157.632
-158.8
-179.876
-246.1
-218.437
-208.13
-220.938
-197.622
-241.628
-227.571
-189.181
-203.035
-153.215
-135.776
-123.235
-141.147
-124.157
-129.287
-177.191
-154.427
-168.046
-242.096
-194.184
-212.308
-206.385
-155.3
-141.816
-156.685
-211.225
-147.229
-122.389
-120.576
-143.365
-173.956
-200.891
-202.456
-155.282
-126.033
-109.695
-113.641
-146.152
-214.315
-194.93
-154.922
-136.197
-144.022
-164.334
-217.364
-169.856
-171.092
-222.107
-159.441
-150.256
-155.051
-207.152
-154.188
-133.362
-122.623
-141.19
-174.05
-164.635
-201.494
-162.135
-156.455
-176.361
-222.034
-169.85
-211.399
-163.019
-159.777
-142.22
-129.504
-124.814
-126.623
-141.607
-169.005
-209.71
-210.167
-235.606
-226.639
-177.006
-150.083
-142.609
-152.06
-180.302
-155.719
-159.735
-182.126
-150.134
-144.456
-162.969
-227.826
-187.684
-184.297
-240.437
-199.625
-234.654
-177.996
-182.161
-135.731
-120.153
-113.546
-123.746
-129.62
-152.846
-188.074
-220.253
-256.74
-193.625
-137.454
-115.321
-114.92
-130.76
-153.476
-188.212
-166.15
-137.873
-123.128
-113.775
-104.205
-119.512
-138.038
-205.155
-168.126
-186.742
-244.975
-188.051
-176.428
-214.286
-188.384
-186.6
-206.535
-245.172
-216.58
-226.8
-165.726
-145.644
-141.862
-185.971
-161.218
-185.867
-256.792
-193.755
-174.61
-168.939
-214.149
-173.824
-161.55
-163.009
-176.136
-180.349
-174.328
-177.377
-234.643
-201.909
-219.608
-264.628
-226.627
-247.107
-182.423
-163.171
-145.146
-146.366
-167.592
-181.394
-165.18
-161.64
-156.51
-156.92
-158.68
-204.274
-175.419
-168.851
-215.965
-197.89
-238.376
-178.998
-154.582
-150.241
-166.241
-222.43
-258.967
-197.713
-193.109
-240.528
-264.574
-279.84
-213.461
-192.603
-185.567
-170.109
-159.928
-170.448
-167.326
-179.168
-145.756
-136.393
-128.482
-141.678
-179.261
-139.123
-123.758
-119.504
-119.61
-115.882
-114.715
-131.789
-142.161
-137.713
-135.097
-135.709
-156.27
-189.613
-247.666
-201.84
-171.059
-155.03
-156.27
-164.617
-184.726
-198.695
-268.224
-250.383
-181.058
-164.926
-203.101
-147.02
-136.728
-144.018
-194.434
-223.386
-168.336
-169.521
-194.122
-239.924
-183.414
-157.44
-146.862
-147.009
-149.809
-145.355
-152.821
-154.382
-165.448
-187.373
-158.294
-151.336
-160.39
-174.718
-234.695
-188.093
-182.279
-188.812
-242.451
-182.663
-160.228
-161.698
-167.679
-180.564
-229.039
-192.67
-197.725
-252.399
-203.172
-224.865
-195.599
-186.868
-200.08
-267.003
-210.304
-186.029
-196.144
-175.832
-168.51
-188.924
-244.207
-221.91
-263.213
-189.015
-157.663
-147.599
-156.838
-170.138
-162.374
-161.359
-165.875
-216.558
-244.656
-172.867
-138.837
-137.65
-141.668
-156.706
-172.132
-181.158
-196.836
-244.828
-202.408
-192.103
-225.814
-183.704
-167.445
-152.707
-144.49
-154.329
-163.089
-189.304
-229.15
-284.298
-301.528
-252.979
-284.421
-223.813
-226.307
-267.949
-274.621
-219.672
-197.893
-192.097
-208.462
-185.199
-183.194
-197.451
-214.865
-266.543
-228.151
-194.486
-197.204
-185.598
-188.882
-225.02
-194.902
-195.67
-216.742
-213.438
-240.085
-214.47
-220.478
-281.048
-591.753
-565.143
-547.944
-574.265
-626.731
-599.184
-665.909
-661.944
-589.417
-584.915
-573.001
-580.587
-636.722
-588.474
-565.088
-574.338
-571.974
-538.713
-536.608
-577.93
-541.644
-578.775
-565.541
-551.814
-570.166
-634.016
-601.728
-619.216
-615.035
-637.13
-612.191
-626.386
-671.783
-638.677
-663.744
-609.252
-654.934
-641.758
-588.812
-623.992
-586.597
-607.617
-627.407
-631.005
-647.858
-591.697
-567.838
-587.543
-626.312
-613.533
-646.072
-601.266
-595.158
-616.232
-684.753
-672.652
-697.438
-636.577
-625.123
-626.213
-673.757
-620.709
-621.559
-668.034
-633.739
-639.753
-624.756
-655.351
-649.097
-703.291
-684.381
-700.918
-681.566
-716.526
-659.574
-631.399
-669.98
-703.082
-650.185
-645.32
-637.922
-663.197
-624.73
-622.9
-611.783
-613.863
-617.793
-631.009
-657.012
-633.551
-655.277
-642.742
-686.575
-690.065
-712.629
-673.832
-718.704
-748.511
-685.164
-692.604
-663.91
-633.094
-621.808
-610.612
-625.425
-674.383
-660.637
-706.028
-670.735
-665.077
-666.895
-720.634
-646.19
-614.292
-597.865
-621.305
-676.544
-675.392
-736.31
-745.583
-742.849
-729.623
-688.503
-723.869
-670.03
-697.186
-652.14
-669.05
-716.221
-711.077
-720.253
-689.848
-628.511
-614.521
-629.896
-624.853
-641.016
-671.968
-647.232
-672.146
-712.965
-674.003
-721.531
-688.719
-658.713
-671.141
-651.518
-672.331
-718.777
-708.12
-638.137
-619.643
-621.613
-639.623
-661.99
-644.113
-635.766
-654.987
-618.463
-611.264
-606.364
-645.626
-622.279
-617.898
-658.283
-640.256
-601.642
-595.611
-614.192
-663.689
-653.741
-705.959
-742.856
-694.873
-648.166
-637.617
-652.221
-714.423
-717.629
-726.412
-664.541
-675.357
-735.059
-723.452
-731.502
-657.045
-624.988
-618.282
-652.51
-617.53
-624.897
-686.012
-639.715
-664.334
-624.054
-659.542
-721.639
-724.384
-643.169
-633.169
-664.612
-633.163
-657.94
-628.042
-630.765
-657.268
-725.119
-767.16
-744.983
-700.347
-632.835
-609.273
-612.858
-637.887
-720.276
-741.68
-670.854
-670.59
-667.807
-723.135
-753.823
-676.127
-664.724
-618.447
-621.385
-623.913
-654.319
-634.343
-623.191
-619.808
-625.363
-630.548
-698.737
-657.979
-684.035
-664.293
-688.448
-688.776
-617.714
-608.857
-597.356
-621.855
-652.427
-644.082
-650.643
-638.509
-646.282
-667.62
-676.24
-729.364
-701.407
-744.044
-732.194
-677.488
-657.709
-674.992
-671.463
-714.072
-665.833
-642.956
-640.748
-619.107
-616.999
-621.536
-635.954
-673.329
-640.592
-623.544
-618.96
-603.687
-627.803
-667.792
-642.545
-625.272
-639.821
-633.877
-646.274
-671.468
-710.767
-718.59
-661.888
-694.712
-635.578
-609.426
-603.639
-616.224
-652.237
-718.645
-708.787
-651.32
-625.577
-614.561
-610.839
-618.898
-673.263
-740.311
-695.341
-687.123
-719.138
-680.93
-718.633
-756.023
-704.064
-709.774
-705.326
-710.276
-681.823
-704.368
-643.982
-628.424
-646.67
-716.166
-696.117
-693.383
-743.353
-675.951
-654.449
-686.091
-724.341
-684.47
-704.844
-714.576
-707.405
-730.082
-678.545
-692.463
-756.465
-732.084
-715.708
-730.724
-714.47
-751.199
-691.53
-709.767
-661.151
-660.041
-705.021
-728.466
-673.019
-668.29
-676.582
-654.894
-673.2
-730.659
-687.281
-714.187
-758.926
-696.172
-727.2
-700.025
-680.358
-643.622
-641.066
-674.128
-645.458
-680.496
-714.549
-771.881
-786.764
-769.201
-709.972
-732.661
-735.955
-686.707
-696.026
-703.775
-669.533
-708.967
-645.29
-632.856
-645.793
-644.207
-670.79
-645.404
-658.315
-649.002
-626.364
-620.38
-638.464
-640.778
-677.95
-648.446
-657.822
-643.744
-648.973
-694.177
-649.413
-694.085
-654.725
-662.981
-647.554
-652.669
-708.136
-678.518
-686.13
-748.562
-683.855
-667.831
-723.437
-684.985
-636.816
-645.582
-694.024
-642.047
-633.476
-639.953
-689.108
-668.16
-705.072
-668.043
-669.142
-668.298
-707.449
-684.596
-715.049
-691.797
-681.424
-732.171
-700.59
-659.2
-646.378
-665.691
-668.465
-711.604
-704.376
-713.603
-753.765
-730.258
-688.957
-713.796
-727.869
-700.125
-765.903
-730.424
-693.939
-660.281
-671.465
-710.9
-680.877
-698.766
-729.559
-759.606
-708.798
-726.081
-739.945
-686.499
-681.775
-707.378
-744.461
-703.139
-676.458
-679.159
-691.147
-666.085
-665.168
-721.546
-714.142
-666.176
-674.318
-733.891
-661.599
-643.33
-668.768
-655.797
-670.747
-700.255
-724.863
-684.74
-682.135
-670.205
-677.747
-698.638
-747.191
-698.982
-704.906
-671.33
-694.051
-660.57
-679.636
-732.258
-765.802
-766.287
-705.978
-678.938
-675.731
-713.791
-698.531
-740.87
-749.894
-701.932
-681.862
-682.881
-704.021
-690.496
-693.753
-732.142
-697.235
-717.826
-764.921
-716.723
-740.733
-699.661
-709.093
-754.681
-695.05
-708.013
-771.234
-738.787
-781.192
-700.836
-674.353
-669.651
-1147.9
-1104.28
-1101.16
-1133.46
-1110.54
-1136.37
-1105.21
-1103.41
-1138.55
-1178.28
-1137.36
-1133.14
-1172.77
-1141.15
-1087.56
-1127.94
-1104.41
-1061.25
-1044.25
-1097.78
-1041.35
-1105.84
-1133.56
-1101.55
-1072.38
-1127.53
-1109.5
-1149.32
-1131.86
-1143.82
-1130.71
-1163.77
-1112.65
-1133.86
-1071.62
-1057.28
-1042.2
-1074.73
-1113.24
-1166.1
-1143.2
-1195.49
-1214.01
-1198.01
-1126.91
-1091.16
-1059.75
-1072.8
-1077.93
-1083.72
-1095.98
-1123.69
-1115.52
-1149.75
-1132.49
-1190.73
-1180.42
-1122.42
-1146.38
-1157.74
-1189.89
-1140.14
-1124.53
-1130.8
-1137.28
-1163.78
-1118.66
-1160.47
-1129.3
-1160.83
-1196.7
-1214.87
-1195.94
-1148.57
-1161.64
-1177.47
-1180.03
-1239.16
-1192.15
-1132.29
-1131.7
-1128.77
-1130.9
-1152.37
-1117.49
-1113.26
-1150.33
-1166.89
-1134.22
-1132.04
-1185.47
-1134.42
-1143.58
-1182.43
-1220.77
-1191.09
-1182.81
-1240.21
-1177.57
-1168.81
-1202.94
-1186.47
-1165.63
-1101.22
-1117.66
-1166.95
-1185.1
-1203.3
-1186.11
-1213.53
-1213.8
-1241.27
-1179.39
-1112.15
-1078.49
-1119.21
-1181.25
-1176.22
-1216.21
-1264.63
-1291.1
-1295.56
-1231.39
-1264.17
-1184.18
-1142.97
-1153.76
-1193.73
-1179.88
-1209.59
-1176.84
-1214.25
-1145.7
-1141.3
-1188.23
-1147.45
-1196.08
-1218.36
-1173.23
-1168.58
-1154.04
-1186.92
-1183.32
-1221.68
-1203.57
-1243.21
-1224.35
-1231.86
-1182.29
-1213.46
-1152.33
-1152.06
-1123.42
-1150.83
-1210.05
-1204.09
-1151.75
-1196.34
-1170.27
-1149.64
-1181.65
-1193.55
-1160.19
-1207.78
-1261.23
-1236.57
-1173.56
-1132.94
-1130.67
-1135.08
-1155.65
-1185.83
-1177.08
-1234.99
-1188.53
-1164.62
-1124.46
-1157.39
-1131.88
-1107.08
-1122.1
-1123.79
-1157.31
-1229.4
-1224.14
-1189.89
-1186.75
-1139.72
-1117.57
-1113.11
-1110.16
-1110.36
-1143.24
-1201.78
-1177.19
-1161.65
-1177.44
-1150.99
-1157.86
-1152.39
-1184.51
-1149.81
-1190.93
-1159.02
-1171.18
-1215.69
-1213.7
-1258.11
-1216.86
-1230.33
-1159.08
-1135.97
-1141.43
-1167.1
-1176.77
-1237.09
-1200.8
-1228.66
-1202.25
-1258.85
-1173.94
-1188.69
-1187.89
-1130.16
-1131.67
-1165.71
-1197.73
-1146.78
-1157.29
-1180.04
-1155.45
-1160.76
-1142.8
-1147.04
-1161.77
-1184.08
-1201.96
-1178.89
-1087.58
-1068.56
-1067.19
-1106.07
-1143.68
-1171.79
-1214.84
-1183.59
-1197.61
-1237.98
-1207.33
-1237.33
-1226.95
-1220.63
-1176.2
-1206.35
-1172.19
-1230.43
-1201.02
-1172.58
-1217.15
-1203.67
-1157.95
-1191.63
-1187.26
-1165.27
-1124.37
-1162.15
-1152.35
-1112.89
-1139.41
-1150.3
-1117.53
-1123.01
-1171.63
-1156.6
-1199.67
-1194.96
-1178.93
-1212.52
-1199.37
-1155.47
-1127.58
-1167.74
-1124.05
-1125.83
-1133.44
-1175.6
-1222.4
-1237.89
-1232.76
-1195.99
-1186.93
-1186.36
-1150.77
-1159.35
-1212.81
-1166.33
-1224.04
-1221.22
-1162.17
-1173.76
-1242.6
-1234.63
-1216.07
-1265.43
-1252.16
-1203.85
-1195.88
-1152.84
-1146.03
-1169.85
-1137.03
-1148.53
-1215.21
-1195.37
-1246.02
-1195.57
-1197.68
-1218.74
-1178.73
-1211.97
-1271.72
-1297.39
-1294.08
-1277.42
-1221.1
-1196.01
-1200.99
-1267.49
-1245.35
-1230.84
-1203.36
-1170.1
-1192.48
-1252.23
-1187.52
-1174.76
-1203.73
-1245.67
-1203.15
-1224.92
-1199.32
-1197.91
-1188.46
-1206.67
-1222.87
-1247.94
-1174.27
-1186.41
-1181.9
-1232.36
-1222.03
-1148.69
-1119.08
-1118.3
-1129.86
-1206.92
-1228.42
-1172.64
-1170.86
-1175.65
-1224.64
-1252.63
-1263.74
-1221.87
-1243.01
-1217.21
-1203.76
-1163.02
-1179.04
-1187.67
-1200.83
-1161.22
-1142.8
-1147.25
-1210.01
-1199.45
-1169.58
-1159.37
-1191.56
-1179.52
-1214.79
-1172.53
-1186.25
-1156.76
-1185.24
-1189.41
-1126.94
-1137.22
-1197.32
-1231.04
-1195.74
-1183.19
-1211.86
-1159.84
-1167.01
-1234.03
-1178.98
-1154.47
-1135.27
-1198.49
-1142.64
-1139.6
-1146.48
-1115.7
-1138.79
-1171.94
-1170.5
-1171.82
-1241.81
-1195
-1224.39
-1226.41
-1255.13
-1218.38
-1278.63
-1252.41
-1223.22
-1231.24
-1260.91
-1197.41
-1194.54
-1207.01
-1186.43
-1261.38
-1261.4
-1235.47
-1199.97
-1248.05
-1202.31
-1252.15
-1281.8
-1216.75
-1179.25
-1236.22
-1215.21
-1143.14