/*--------------------------------*- C++ -*----------------------------------*\
| =========                 |                                                 |
| \\      /  F ield         | OpenFOAM: The Open Source CFD Toolbox           |
|  \\    /   O peration     | Version:  v2012                                 |
|   \\  /    A nd           | Website:  www.openfoam.com                      |
|    \\/     M anipulation  |                                                 |
\*---------------------------------------------------------------------------*/
FoamFile
{
    version     2.0;
    format      ascii;
    class       volScalarField;
    location    "100";
    object      p;
}
// * * * * * * * * * * * * * * * * * * * * * * * * * * * * * * * * * * * * * //

dimensions      [1 -1 -2 0 0 0 0];


internalField   nonuniform List<scalar> 
65536
(
158075
158075
158074
158073
158071
158069
158066
158063
158060
158056
158051
158047
158041
158035
158029
158022
158014
158006
157998
157990
157981
157973
157964
157955
157946
157936
157927
157917
157907
157897
157887
157877
157867
157857
157847
157837
157827
157818
157808
157799
157790
157782
157773
157765
157757
157750
157742
157735
157728
157721
157715
157708
157702
157695
157688
157682
157675
157669
157662
157656
157649
157643
157637
157630
157624
157619
157613
157608
157603
157598
157593
157589
157585
157580
157576
157573
157569
157565
157562
157559
157555
157552
157549
157546
157543
157540
157537
157534
157531
157529
157526
157524
157521
157519
157516
157514
157512
157509
157507
157505
157503
157500
157498
157496
157494
157492
157490
157488
157486
157484
157482
157480
157478
157477
157475
157473
157472
157471
157469
157468
157467
157466
157464
157463
157462
157461
157460
157459
157458
157457
157456
157454
157453
157452
157451
157450
157449
157448
157448
157447
157446
157445
157444
157444
157443
157442
157442
157441
157440
157440
157439
157438
157437
157436
157436
157435
157434
157434
157433
157432
157431
157431
157430
157429
157429
157428
157427
157427
157427
157426
157426
157426
157425
157425
157425
157425
157425
157425
157425
157425
157425
157425
157425
157425
157425
157425
157425
157425
157424
157424
157424
157424
157423
157423
157423
157423
157423
157423
157422
157422
157422
157422
157422
157421
157421
157421
157421
157420
157420
157420
157419
157419
157419
157419
157418
157418
157418
157418
157418
157417
157417
157417
157417
157417
157416
157416
157416
157416
157416
157416
157416
157416
157416
157416
157416
157416
157416
157416
157416
157416
157416
157416
157416
157416
157415
157415
157414
157414
157414
157413
157413
157412
157412
157412
157411
157411
157410
157410
157410
157409
157409
157409
157409
157409
157409
157409
157409
157409
157409
157409
157408
157409
157408
157408
157408
157408
157408
157408
157408
157408
157408
157407
157407
157407
157407
157407
157407
157406
157406
157406
157406
157405
157405
157404
157404
157403
157403
157403
157403
157403
157403
157403
157403
157402
157402
157402
157401
157400
157400
157399
157399
157398
157398
157398
157398
157397
157397
157397
157397
157397
157397
157397
157397
157396
157396
157396
157396
157396
157395
157395
157395
157395
157395
157395
157395
157395
157395
157395
157395
157394
157394
157393
157393
157393
157392
157392
157392
157391
157391
157391
157391
157390
157390
157390
157389
157389
157389
157389
157389
157389
157389
157389
157389
157389
157389
157389
157388
157388
157388
157388
157388
157387
157387
157387
157387
157387
157387
157387
157387
157386
157386
157386
157386
157386
157386
157386
157385
157385
157385
157384
157384
157384
157383
157383
157383
157383
157382
157383
157383
157383
157383
157384
157384
157384
157384
157384
157384
157384
157384
157383
157383
157382
157381
157381
157380
157380
157379
157379
157378
157378
157377
157377
157376
157376
157376
157375
157375
157374
157374
157373
157373
157373
157372
157372
157372
157371
157371
157370
157370
157369
157369
157368
157368
157367
157367
157366
157366
157365
157365
157364
157363
157362
157362
157361
157360
157360
157359
157359
157359
157358
157358
157358
157357
157357
157356
157356
157355
157354
157354
157353
157352
157352
157351
157350
157350
157349
157348
157348
157347
157347
157346
157346
157345
157344
157344
157343
157342
157342
157341
157340
157339
157338
157338
157337
157336
157335
157335
157334
157334
157333
157333
157332
157332
157332
157332
157332
157332
157332
157332
157332
157332
157332
157178
157178
157177
157176
157174
157171
157169
157166
157162
157158
157154
157149
157144
157138
157131
157124
157117
157109
157100
157092
157084
157075
157066
157057
157048
157039
157029
157020
157010
157000
156990
156980
156970
156960
156950
156940
156931
156921
156912
156903
156894
156885
156877
156869
156861
156854
156846
156839
156832
156825
156819
156812
156805
156799
156792
156786
156779
156773
156766
156760
156753
156747
156741
156735
156729
156723
156717
156712
156707
156702
156698
156693
156689
156685
156681
156677
156674
156670
156667
156663
156660
156657
156653
156650
156647
156644
156642
156639
156636
156634
156631
156629
156626
156624
156621
156619
156617
156614
156612
156610
156607
156605
156603
156601
156599
156597
156595
156593
156591
156589
156587
156585
156583
156582
156580
156579
156577
156576
156575
156573
156572
156571
156570
156569
156567
156566
156565
156564
156563
156562
156561
156560
156559
156558
156557
156556
156555
156554
156553
156552
156551
156550
156550
156549
156548
156548
156547
156546
156546
156545
156544
156543
156543
156542
156541
156540
156540
156539
156538
156538
156537
156536
156536
156535
156534
156534
156533
156533
156532
156532
156531
156531
156531
156531
156531
156531
156531
156531
156531
156531
156531
156531
156531
156531
156531
156530
156530
156530
156530
156529
156529
156529
156529
156529
156529
156528
156528
156528
156528
156528
156528
156527
156527
156527
156527
156526
156526
156526
156526
156525
156525
156525
156524
156524
156524
156524
156524
156523
156523
156523
156523
156522
156522
156522
156522
156522
156521
156521
156521
156521
156521
156521
156521
156521
156521
156521
156521
156521
156521
156521
156521
156521
156521
156521
156521
156520
156520
156520
156519
156519
156518
156518
156518
156517
156517
156516
156516
156516
156515
156515
156515
156515
156515
156515
156515
156514
156514
156514
156514
156514
156514
156514
156514
156514
156514
156514
156514
156514
156514
156514
156513
156513
156513
156513
156512
156512
156512
156512
156512
156511
156511
156511
156510
156510
156509
156509
156509
156509
156509
156508
156508
156508
156508
156508
156507
156507
156507
156506
156505
156505
156504
156504
156503
156503
156503
156503
156503
156503
156503
156503
156503
156503
156502
156502
156502
156502
156501
156501
156501
156501
156501
156501
156501
156501
156501
156501
156501
156501
156500
156500
156500
156499
156499
156498
156498
156497
156497
156497
156497
156496
156496
156496
156496
156495
156495
156495
156495
156494
156494
156495
156495
156495
156495
156495
156495
156495
156494
156494
156494
156494
156493
156493
156493
156493
156493
156492
156492
156492
156492
156492
156492
156492
156492
156492
156492
156491
156491
156491
156490
156490
156490
156489
156489
156489
156488
156488
156488
156488
156488
156489
156489
156489
156490
156490
156490
156490
156490
156490
156489
156489
156488
156487
156487
156486
156486
156485
156485
156484
156484
156483
156483
156483
156482
156482
156481
156481
156480
156480
156480
156479
156479
156478
156478
156478
156477
156477
156476
156476
156475
156475
156475
156474
156474
156473
156473
156472
156471
156471
156470
156470
156469
156468
156467
156467
156466
156466
156465
156465
156464
156464
156464
156463
156463
156463
156462
156461
156461
156460
156459
156459
156458
156457
156457
156456
156456
156455
156454
156454
156453
156452
156452
156451
156451
156450
156449
156449
156448
156447
156447
156446
156445
156444
156444
156443
156442
156441
156441
156440
156440
156439
156439
156438
156438
156438
156438
156438
156438
156438
156438
156438
156438
156438
156287
156286
156285
156284
156282
156279
156276
156273
156269
156266
156261
156256
156251
156245
156238
156231
156223
156215
156207
156199
156190
156182
156173
156164
156154
156145
156136
156126
156116
156106
156097
156087
156077
156068
156058
156048
156039
156029
156020
156011
156002
155993
155985
155977
155969
155962
155954
155947
155940
155934
155927
155920
155914
155907
155901
155894
155888
155881
155875
155868
155862
155856
155849
155843
155837
155832
155826
155821
155816
155811
155806
155802
155798
155794
155790
155786
155782
155779
155776
155772
155769
155766
155762
155759
155756
155754
155751
155748
155745
155743
155740
155738
155735
155732
155730
155728
155726
155723
155721
155719
155717
155715
155713
155710
155708
155706
155704
155702
155700
155698
155696
155695
155693
155691
155689
155688
155686
155685
155684
155683
155681
155681
155679
155678
155677
155676
155675
155674
155673
155672
155671
155669
155668
155667
155666
155665
155664
155663
155662
155662
155661
155660
155659
155658
155658
155657
155656
155656
155655
155654
155654
155653
155652
155652
155651
155650
155650
155649
155648
155648
155647
155646
155645
155645
155644
155644
155643
155643
155642
155642
155642
155641
155641
155641
155641
155641
155641
155641
155641
155641
155641
155640
155641
155641
155640
155640
155640
155640
155639
155639
155639
155639
155638
155638
155638
155638
155638
155638
155637
155637
155637
155637
155637
155636
155636
155636
155636
155635
155635
155635
155635
155635
155634
155634
155634
155634
155634
155633
155633
155633
155633
155632
155632
155632
155632
155632
155631
155631
155631
155631
155631
155631
155631
155631
155631
155631
155631
155631
155631
155631
155631
155631
155631
155631
155630
155630
155630
155629
155629
155628
155628
155628
155627
155627
155627
155626
155626
155625
155625
155625
155625
155624
155624
155625
155625
155624
155624
155624
155624
155624
155624
155624
155624
155624
155624
155624
155624
155624
155624
155623
155623
155623
155623
155622
155622
155622
155622
155622
155622
155621
155621
155621
155620
155620
155620
155619
155619
155619
155619
155618
155618
155618
155618
155618
155618
155617
155616
155616
155615
155615
155615
155614
155614
155614
155614
155613
155613
155613
155613
155613
155613
155613
155612
155612
155612
155612
155612
155612
155612
155612
155611
155611
155611
155611
155611
155611
155611
155611
155610
155610
155610
155609
155609
155609
155608
155608
155607
155607
155607
155607
155606
155606
155606
155605
155605
155605
155605
155604
155605
155605
155605
155605
155605
155605
155605
155605
155604
155604
155604
155604
155604
155603
155603
155603
155603
155603
155603
155603
155603
155602
155602
155602
155602
155602
155602
155601
155601
155601
155601
155600
155600
155600
155599
155599
155599
155599
155599
155599
155599
155599
155599
155600
155600
155600
155600
155600
155600
155599
155599
155599
155598
155598
155597
155596
155596
155595
155595
155595
155594
155594
155593
155593
155592
155592
155592
155591
155591
155590
155590
155590
155589
155589
155588
155588
155587
155587
155587
155586
155586
155585
155585
155585
155584
155584
155583
155582
155582
155581
155581
155580
155579
155578
155578
155577
155576
155576
155575
155575
155575
155574
155574
155574
155573
155573
155572
155572
155571
155570
155570
155569
155568
155567
155567
155566
155565
155565
155564
155563
155563
155563
155562
155561
155561
155560
155560
155559
155558
155557
155557
155556
155555
155554
155554
155553
155552
155552
155551
155551
155550
155550
155549
155549
155548
155548
155548
155548
155548
155548
155548
155548
155548
155548
155400
155399
155398
155396
155393
155391
155388
155384
155381
155377
155373
155367
155362
155355
155349
155341
155334
155326
155318
155309
155301
155292
155283
155274
155265
155256
155247
155237
155227
155218
155208
155198
155189
155179
155170
155160
155151
155142
155133
155124
155115
155106
155098
155089
155082
155074
155067
155060
155053
155046
155039
155033
155026
155019
155013
155007
155000
154993
154987
154981
154975
154968
154962
154956
154950
154944
154939
154933
154928
154924
154919
154915
154911
154907
154903
154899
154895
154892
154888
154885
154882
154879
154876
154873
154869
154867
154864
154861
154858
154856
154853
154851
154848
154845
154843
154841
154839
154837
154834
154832
154830
154828
154826
154824
154822
154820
154817
154815
154813
154812
154810
154808
154806
154804
154803
154801
154800
154799
154798
154796
154795
154794
154793
154792
154791
154790
154789
154787
154786
154785
154784
154783
154782
154781
154780
154779
154778
154777
154776
154775
154775
154774
154773
154772
154771
154771
154770
154770
154769
154768
154768
154767
154766
154765
154765
154764
154764
154763
154762
154762
154761
154760
154760
154759
154758
154758
154757
154757
154757
154756
154756
154756
154755
154755
154755
154755
154755
154755
154754
154754
154754
154755
154755
154755
154755
154754
154754
154753
154753
154753
154752
154752
154752
154752
154752
154752
154752
154751
154751
154751
154751
154750
154750
154750
154750
154750
154749
154750
154750
154749
154749
154749
154749
154748
154748
154748
154747
154747
154747
154747
154746
154746
154746
154746
154746
154745
154745
154745
154745
154745
154745
154746
154746
154746
154746
154746
154746
154746
154745
154745
154745
154745
154745
154744
154744
154744
154743
154743
154743
154742
154742
154742
154741
154741
154740
154740
154740
154739
154739
154739
154739
154739
154739
154739
154739
154738
154738
154738
154738
154738
154738
154738
154738
154738
154738
154738
154738
154738
154737
154737
154737
154737
154737
154736
154736
154736
154736
154736
154736
154735
154735
154734
154734
154734
154733
154733
154733
154733
154733
154732
154732
154732
154732
154732
154731
154731
154731
154730
154729
154729
154728
154728
154728
154728
154728
154728
154728
154727
154728
154727
154727
154727
154727
154727
154726
154726
154726
154726
154726
154726
154726
154725
154725
154725
154725
154725
154725
154725
154725
154724
154724
154724
154723
154723
154723
154722
154721
154721
154721
154721
154720
154720
154720
154719
154719
154719
154719
154719
154719
154719
154719
154719
154719
154719
154719
154719
154719
154719
154719
154718
154718
154718
154718
154718
154717
154717
154717
154717
154716
154717
154717
154716
154716
154716
154716
154716
154715
154715
154715
154714
154714
154714
154714
154714
154713
154713
154713
154713
154713
154713
154713
154713
154714
154714
154714
154714
154713
154713
154713
154712
154712
154711
154711
154710
154710
154710
154709
154709
154709
154708
154708
154707
154707
154706
154706
154705
154705
154705
154704
154703
154703
154702
154702
154702
154701
154701
154700
154700
154700
154699
154699
154699
154699
154698
154698
154697
154696
154696
154695
154694
154693
154693
154692
154691
154691
154690
154690
154689
154689
154688
154688
154688
154687
154687
154686
154686
154685
154684
154683
154683
154682
154682
154681
154681
154680
154680
154679
154678
154678
154677
154676
154676
154675
154674
154674
154673
154672
154671
154671
154670
154670
154669
154668
154667
154667
154666
154666
154666
154665
154664
154664
154663
154663
154662
154663
154663
154663
154663
154663
154663
154663
154663
154516
154515
154514
154512
154509
154507
154504
154500
154496
154492
154487
154482
154477
154470
154463
154456
154448
154440
154431
154423
154415
154406
154397
154388
154378
154370
154360
154352
154342
154333
154323
154313
154304
154294
154285
154276
154267
154257
154248
154239
154231
154222
154213
154206
154198
154190
154183
154175
154168
154162
154155
154148
154142
154135
154129
154122
154116
154109
154102
154096
154090
154084
154078
154072
154066
154061
154055
154050
154045
154041
154036
154031
154027
154023
154019
154016
154012
154009
154005
154002
153999
153996
153992
153989
153987
153983
153980
153978
153975
153973
153970
153967
153965
153962
153959
153957
153955
153953
153951
153949
153947
153945
153943
153941
153939
153937
153935
153933
153931
153929
153927
153926
153924
153922
153920
153919
153917
153916
153915
153914
153912
153911
153910
153909
153908
153907
153906
153904
153903
153903
153902
153900
153899
153898
153897
153896
153895
153894
153893
153893
153892
153891
153890
153889
153888
153888
153887
153887
153886
153886
153885
153885
153884
153883
153883
153882
153881
153881
153880
153879
153878
153878
153877
153877
153876
153876
153876
153875
153875
153875
153874
153874
153873
153873
153873
153873
153872
153872
153872
153872
153872
153873
153873
153872
153872
153872
153871
153871
153870
153870
153870
153869
153869
153869
153869
153869
153869
153869
153869
153868
153868
153868
153868
153867
153867
153867
153867
153867
153867
153867
153866
153866
153866
153866
153866
153866
153865
153865
153865
153865
153864
153864
153864
153863
153863
153863
153863
153863
153863
153863
153863
153864
153863
153864
153864
153864
153864
153863
153863
153863
153863
153863
153862
153862
153862
153861
153861
153861
153860
153860
153860
153859
153859
153859
153859
153858
153858
153857
153857
153857
153857
153856
153857
153856
153857
153856
153856
153856
153856
153856
153856
153856
153856
153856
153856
153856
153856
153856
153855
153856
153855
153855
153854
153854
153854
153854
153853
153853
153853
153853
153852
153852
153852
153851
153852
153851
153851
153851
153851
153850
153850
153850
153849
153849
153849
153849
153848
153848
153847
153847
153847
153846
153846
153846
153846
153846
153846
153846
153846
153845
153845
153845
153845
153845
153844
153844
153844
153844
153844
153843
153843
153843
153843
153843
153843
153843
153844
153843
153843
153843
153842
153842
153841
153842
153840
153840
153839
153839
153839
153839
153838
153838
153838
153838
153837
153837
153837
153837
153837
153837
153837
153837
153837
153838
153838
153838
153837
153837
153837
153837
153836
153836
153836
153836
153836
153836
153835
153835
153835
153835
153835
153834
153834
153834
153834
153834
153833
153833
153833
153833
153833
153832
153832
153832
153832
153832
153832
153831
153831
153831
153831
153831
153832
153832
153831
153831
153831
153831
153831
153830
153830
153829
153828
153828
153827
153828
153827
153828
153827
153826
153826
153825
153825
153825
153824
153824
153823
153823
153822
153822
153821
153820
153819
153819
153819
153819
153818
153818
153818
153817
153817
153817
153817
153816
153816
153815
153814
153814
153813
153812
153811
153811
153810
153810
153809
153809
153808
153808
153807
153807
153806
153806
153805
153805
153804
153804
153803
153802
153802
153801
153800
153800
153799
153798
153798
153797
153796
153796
153795
153794
153794
153793
153793
153792
153791
153790
153790
153789
153788
153787
153787
153786
153786
153785
153785
153784
153784
153783
153783
153783
153782
153782
153781
153781
153781
153781
153782
153781
153781
153781
153781
153781
153637
153635
153634
153632
153629
153627
153624
153619
153615
153611
153606
153601
153595
153588
153581
153573
153565
153558
153549
153541
153532
153523
153514
153505
153496
153487
153478
153470
153460
153451
153441
153432
153423
153414
153404
153395
153386
153377
153368
153359
153350
153342
153334
153325
153317
153310
153302
153295
153287
153281
153274
153268
153261
153255
153248
153242
153235
153228
153222
153215
153210
153203
153197
153191
153186
153180
153175
153170
153165
153161
153156
153151
153147
153143
153140
153136
153132
153129
153125
153122
153119
153116
153113
153110
153107
153104
153101
153098
153095
153092
153090
153087
153085
153083
153080
153078
153076
153074
153072
153070
153068
153065
153063
153061
153059
153057
153055
153054
153052
153050
153048
153046
153044
153043
153041
153040
153039
153037
153036
153035
153034
153033
153031
153030
153029
153028
153026
153025
153024
153023
153022
153021
153021
153019
153018
153017
153016
153015
153014
153014
153013
153012
153012
153011
153010
153009
153008
153008
153007
153007
153006
153006
153005
153005
153004
153003
153003
153002
153001
153001
153000
153000
152999
152998
152998
152998
152998
152997
152997
152997
152996
152996
152996
152995
152995
152994
152994
152994
152994
152994
152994
152994
152994
152994
152994
152993
152992
152992
152991
152991
152991
152991
152990
152990
152990
152990
152990
152990
152990
152989
152989
152989
152989
152989
152988
152988
152988
152988
152988
152987
152987
152987
152987
152987
152987
152987
152987
152987
152987
152986
152986
152986
152985
152985
152985
152985
152984
152985
152985
152985
152985
152985
152985
152985
152985
152985
152986
152985
152985
152985
152984
152984
152983
152983
152983
152983
152983
152982
152981
152981
152981
152980
152980
152980
152980
152979
152980
152979
152979
152978
152977
152978
152978
152978
152978
152978
152978
152977
152977
152977
152977
152977
152978
152978
152977
152978
152977
152977
152977
152976
152976
152977
152976
152976
152975
152975
152975
152975
152975
152974
152974
152974
152974
152973
152974
152973
152973
152972
152972
152971
152971
152971
152970
152970
152970
152970
152969
152969
152968
152968
152969
152969
152969
152968
152968
152968
152968
152967
152967
152967
152967
152967
152966
152967
152966
152966
152966
152966
152965
152965
152965
152965
152965
152965
152965
152965
152965
152964
152964
152964
152964
152964
152963
152964
152962
152962
152961
152961
152961
152960
152960
152960
152959
152959
152959
152959
152958
152958
152959
152959
152959
152959
152959
152959
152959
152960
152959
152959
152958
152958
152958
152958
152958
152958
152958
152958
152957
152957
152957
152955
152956
152956
152956
152956
152956
152955
152955
152954
152955
152955
152955
152955
152955
152955
152954
152954
152954
152954
152954
152953
152954
152954
152954
152953
152953
152953
152953
152952
152952
152952
152952
152951
152951
152951
152950
152950
152950
152950
152949
152949
152948
152947
152947
152947
152946
152946
152945
152945
152944
152944
152943
152942
152942
152941
152940
152940
152939
152939
152939
152939
152940
152939
152939
152938
152937
152936
152936
152935
152935
152934
152934
152933
152932
152932
152931
152930
152930
152929
152929
152928
152928
152927
152928
152927
152926
152925
152925
152924
152923
152923
152922
152921
152921
152920
152920
152918
152917
152917
152916
152916
152915
152915
152914
152913
152913
152912
152911
152910
152910
152909
152908
152908
152906
152907
152907
152906
152905
152905
152905
152905
152905
152905
152904
152904
152904
152904
152904
152903
152903
152903
152903
152903
152758
152757
152756
152755
152752
152750
152746
152743
152738
152734
152728
152723
152716
152710
152703
152695
152688
152679
152671
152662
152653
152645
152635
152627
152618
152609
152600
152590
152581
152572
152563
152554
152544
152535
152526
152517
152508
152499
152491
152482
152474
152465
152457
152448
152440
152433
152425
152418
152411
152403
152397
152391
152384
152377
152370
152364
152357
152350
152345
152338
152332
152326
152321
152315
152309
152304
152299
152293
152289
152284
152279
152275
152271
152267
152263
152259
152255
152252
152249
152245
152242
152239
152237
152234
152231
152228
152226
152222
152219
152216
152214
152211
152209
152206
152204
152202
152199
152197
152195
152193
152192
152189
152187
152185
152183
152181
152179
152177
152175
152174
152172
152170
152169
152167
152166
152164
152163
152162
152160
152159
152158
152158
152156
152155
152153
152152
152151
152150
152149
152148
152147
152146
152145
152144
152143
152142
152141
152139
152139
152138
152137
152136
152136
152135
152134
152134
152133
152133
152132
152132
152131
152130
152130
152129
152129
152128
152128
152127
152126
152125
152125
152124
152124
152123
152123
152123
152122
152122
152121
152121
152121
152121
152120
152120
152120
152119
152119
152119
152119
152118
152118
152118
152119
152119
152118
152118
152118
152117
152117
152115
152115
152115
152115
152115
152115
152115
152115
152114
152114
152114
152114
152114
152113
152113
152113
152113
152113
152113
152112
152112
152112
152112
152112
152112
152111
152111
152111
152112
152111
152111
152110
152110
152109
152109
152110
152110
152109
152110
152110
152110
152111
152111
152111
152111
152110
152110
152111
152110
152110
152110
152109
152109
152109
152108
152108
152107
152107
152107
152106
152106
152105
152105
152105
152105
152104
152104
152105
152104
152104
152104
152102
152103
152103
152103
152103
152103
152103
152103
152102
152103
152103
152103
152103
152102
152102
152102
152102
152102
152102
152102
152102
152102
152101
152101
152100
152100
152099
152099
152099
152099
152099
152098
152098
152098
152098
152097
152097
152097
152095
152095
152095
152095
152095
152095
152095
152094
152095
152094
152094
152094
152094
152093
152093
152093
152093
152093
152093
152092
152092
152092
152093
152092
152092
152092
152091
152090
152090
152091
152091
152090
152090
152090
152090
152090
152090
152090
152090
152090
152090
152089
152089
152089
152088
152088
152087
152087
152086
152086
152085
152085
152085
152084
152084
152084
152084
152085
152084
152084
152084
152084
152084
152083
152084
152084
152084
152084
152084
152084
152083
152083
152084
152083
152083
152083
152083
152083
152082
152082
152082
152081
152081
152081
152081
152081
152081
152081
152081
152080
152080
152081
152081
152081
152081
152080
152080
152080
152079
152079
152079
152079
152079
152079
152079
152078
152078
152078
152078
152078
152078
152077
152077
152077
152077
152076
152077
152076
152075
152075
152074
152074
152074
152073
152072
152072
152071
152070
152070
152070
152069
152069
152068
152067
152067
152066
152065
152065
152064
152064
152064
152064
152065
152064
152064
152063
152062
152062
152061
152061
152060
152059
152058
152057
152057
152056
152056
152055
152055
152054
152054
152053
152053
152052
152053
152051
152051
152050
152050
152049
152048
152048
152047
152046
152046
152045
152044
152044
152043
152042
152041
152040
152040
152039
152039
152038
152038
152037
152037
152035
152035
152034
152033
152033
152032
152032
152032
152032
152032
152030
152031
152031
152031
152031
152030
152030
152030
152030
152030
152029
152029
152029
152029
152029
151883
151883
151882
151881
151880
151877
151873
151870
151865
151860
151854
151848
151842
151835
151828
151821
151813
151805
151796
151787
151779
151769
151761
151752
151743
151733
151725
151716
151706
151697
151688
151680
151670
151661
151652
151643
151634
151625
151617
151608
151599
151591
151583
151575
151567
151559
151552
151544
151537
151530
151523
151516
151509
151503
151496
151490
151483
151476
151470
151464
151458
151452
151447
151441
151436
151430
151425
151420
151415
151410
151405
151401
151397
151393
151390
151386
151383
151380
151376
151373
151370
151366
151363
151360
151358
151355
151353
151349
151348
151345
151342
151339
151336
151334
151331
151329
151328
151325
151323
151321
151319
151317
151315
151313
151311
151308
151306
151304
151303
151302
151300
151298
151297
151295
151293
151292
151290
151289
151288
151287
151285
151285
151284
151282
151281
151280
151279
151279
151277
151276
151275
151275
151273
151273
151271
151270
151269
151268
151267
151267
151265
151266
151264
151263
151262
151261
151261
151261
151260
151260
151259
151258
151258
151257
151256
151256
151256
151255
151254
151253
151253
151252
151252
151252
151252
151251
151251
151251
151250
151249
151249
151248
151248
151249
151248
151248
151248
151247
151247
151247
151247
151247
151246
151246
151246
151246
151246
151245
151245
151243
151243
151243
151243
151243
151243
151242
151242
151242
151242
151242
151241
151241
151241
151241
151241
151240
151240
151239
151239
151240
151240
151240
151240
151240
151240
151239
151239
151239
151240
151239
151239
151239
151238
151238
151238
151237
151238
151238
151238
151239
151239
151239
151240
151239
151238
151238
151239
151238
151238
151238
151237
151238
151237
151237
151236
151236
151236
151235
151235
151234
151234
151234
151234
151234
151233
151233
151233
151233
151233
151233
151231
151232
151231
151232
151231
151231
151231
151231
151231
151231
151231
151231
151231
151230
151231
151231
151231
151231
151231
151232
151230
151230
151229
151229
151229
151228
151228
151227
151227
151227
151227
151227
151226
151226
151227
151226
151224
151224
151223
151223
151223
151223
151223
151223
151222
151223
151223
151223
151223
151222
151222
151221
151222
151221
151221
151221
151221
151221
151221
151221
151221
151221
151221
151220
151219
151219
151219
151219
151219
151219
151219
151218
151218
151219
151219
151218
151218
151218
151218
151218
151217
151217
151216
151215
151215
151215
151215
151214
151214
151214
151214
151214
151214
151214
151213
151213
151213
151213
151212
151212
151213
151212
151212
151212
151212
151212
151212
151212
151212
151212
151212
151212
151211
151211
151211
151211
151211
151210
151210
151210
151210
151210
151210
151209
151210
151209
151209
151211
151209
151210
151210
151209
151210
151209
151209
151209
151209
151209
151208
151208
151208
151208
151207
151207
151207
151206
151206
151207
151206
151206
151206
151205
151204
151205
151205
151204
151204
151203
151203
151203
151202
151201
151201
151201
151201
151200
151199
151198
151198
151197
151197
151196
151196
151195
151195
151194
151194
151192
151193
151193
151193
151192
151192
151192
151191
151190
151189
151189
151187
151188
151186
151186
151185
151185
151185
151184
151183
151183
151182
151181
151181
151180
151181
151180
151179
151179
151178
151178
151177
151176
151176
151175
151174
151173
151172
151172
151172
151171
151170
151170
151169
151168
151168
151167
151166
151165
151165
151164
151164
151163
151162
151162
151162
151161
151160
151160
151160
151159
151159
151159
151159
151160
151160
151161
151159
151159
151159
151159
151158
151158
151158
151158
151011
151011
151010
151009
151008
151005
151002
150998
150994
150989
150983
150977
150971
150964
150957
150950
150942
150934
150926
150917
150908
150898
150890
150881
150873
150864
150855
150846
150837
150827
150818
150809
150799
150791
150780
150772
150763
150754
150745
150736
150729
150721
150712
150705
150697
150689
150681
150674
150667
150660
150653
150646
150638
150632
150625
150619
150612
150606
150600
150594
150588
150581
150576
150571
150565
150560
150555