/*--------------------------------*- C++ -*----------------------------------*\
| =========                 |                                                 |
| \\      /  F ield         | OpenFOAM: The Open Source CFD Toolbox           |
|  \\    /   O peration     | Version:  v2012                                 |
|   \\  /    A nd           | Website:  www.openfoam.com                      |
|    \\/     M anipulation  |                                                 |
\*---------------------------------------------------------------------------*/
FoamFile
{
    version     2.0;
    format      ascii;
    class       volScalarField;
    location    "100";
    object      p_rgh;
}
// * * * * * * * * * * * * * * * * * * * * * * * * * * * * * * * * * * * * * //

dimensions      [1 -1 -2 0 0 0 0];


internalField   nonuniform List<scalar> 
65536
(
58524.8
58524.7
58524.3
58522.8
58521
58518.7
58516.1
58513.1
58509.6
58505.8
58501.5
58496.6
58491.3
58485.2
58478.8
58471.6
58464.1
58456.1
58448
58439.6
58431.1
58422.5
58413.7
58404.7
58395.5
58386.1
58376.4
58366.5
58356.5
58346.4
58336.3
58326.3
58316.3
58306.3
58296.4
58286.5
58276.8
58267.1
58257.7
58248.5
58239.5
58230.9
58222.5
58214.4
58206.7
58199
58191.7
58184.5
58177.5
58170.7
58164
58157.3
58150.7
58144.1
58137.6
58131.1
58124.6
58118
58111.4
58104.8
58098.3
58091.9
58085.6
58079.4
58073.4
58067.6
58062
58056.7
58051.6
58046.8
58042.1
58037.7
58033.4
58029.4
58025.3
58021.6
58017.8
58014.3
58010.7
58007.5
58004
58000.8
57997.5
57994.4
57991.3
57988.4
57985.5
57982.8
57980.2
57977.6
57975.1
57972.6
57970.1
57967.6
57965.2
57962.8
57960.4
57958.1
57955.8
57953.5
57951.2
57949
57946.8
57944.7
57942.6
57940.5
57938.4
57936.5
57934.4
57932.6
57930.6
57928.8
57926.9
57925.2
57923.5
57922
57920.5
57919.2
57917.9
57916.7
57915.3
57914.2
57912.9
57911.7
57910.5
57909.5
57908.3
57907.3
57906.2
57905.1
57904
57902.9
57901.9
57900.8
57899.8
57898.8
57897.8
57896.9
57896
57895.2
57894.4
57893.7
57892.9
57892.2
57891.5
57890.8
57890.1
57889.4
57888.8
57888
57887.2
57886.5
57885.7
57885
57884.2
57883.5
57882.8
57882.1
57881.4
57880.7
57879.9
57879.1
57878.3
57877.6
57876.9
57876.4
57875.7
57875.3
57874.9
57874.6
57874.3
57874
57873.7
57873.6
57873.5
57873.5
57873.6
57873.7
57873.8
57873.8
57873.8
57873.8
57873.7
57873.6
57873.5
57873.3
57873.1
57872.9
57872.7
57872.5
57872.3
57872
57871.8
57871.7
57871.5
57871.4
57871.3
57871
57870.8
57870.6
57870.4
57870.1
57869.9
57869.7
57869.5
57869.2
57868.9
57868.6
57868.4
57868.1
57867.8
57867.5
57867.2
57867
57866.8
57866.6
57866.4
57866.2
57865.9
57865.7
57865.4
57865.3
57865.2
57865
57864.8
57864.6
57864.4
57864.3
57864.1
57864
57864
57863.9
57863.9
57864
57864.1
57864.1
57864.1
57864.2
57864.2
57864.3
57864.3
57864.2
57864.1
57863.9
57863.6
57863.3
57862.9
57862.5
57862
57861.6
57861.1
57860.8
57860.3
57859.9
57859.6
57859.1
57858.8
57858.3
57858
57857.7
57857.6
57857.4
57857.4
57857.4
57857.3
57857.3
57857.2
57857.1
57857
57857
57856.9
57856.9
57856.8
57856.8
57856.7
57856.7
57856.6
57856.5
57856.4
57856.2
57856
57855.7
57855.5
57855.3
57855.1
57855.1
57854.9
57854.8
57854.6
57854.3
57853.9
57853.5
57853
57852.5
57852.1
57851.7
57851.5
57851.4
57851.3
57851.2
57851.1
57851.1
57850.9
57850.7
57850.4
57850
57849.4
57848.9
57848.2
57847.6
57847.1
57846.7
57846.3
57846.1
57845.9
57845.8
57845.7
57845.7
57845.7
57845.7
57845.6
57845.4
57845.1
57844.9
57844.6
57844.4
57844.2
57844
57843.9
57843.8
57843.7
57843.5
57843.5
57843.4
57843.5
57843.5
57843.4
57843.2
57843
57842.6
57842.2
57841.7
57841.4
57840.8
57840.6
57840.2
57839.9
57839.6
57839.5
57839.2
57838.9
57838.6
57838.3
57838
57837.7
57837.5
57837.3
57837.2
57837.2
57837.2
57837.2
57837.2
57837.2
57837.1
57837.1
57836.9
57836.8
57836.6
57836.3
57836.1
57835.9
57835.7
57835.5
57835.4
57835.2
57835.1
57835
57834.9
57834.8
57834.7
57834.7
57834.6
57834.5
57834.4
57834.2
57834
57833.7
57833.4
57833.1
57832.7
57832.3
57832
57831.6
57831.3
57831
57830.9
57830.8
57830.9
57831
57831.3
57831.6
57832
57832.2
57832.5
57832.6
57832.7
57832.5
57832.3
57831.9
57831.4
57830.8
57830.2
57829.5
57828.9
57828.4
57827.9
57827.5
57827
57826.6
57826.1
57825.6
57825.1
57824.7
57824.2
57823.8
57823.4
57822.9
57822.5
57822.1
57821.7
57821.4
57821.1
57820.7
57820.4
57820.1
57819.7
57819.2
57818.6
57818.1
57817.6
57817.1
57816.6
57816.1
57815.6
57815.1
57814.5
57814
57813.4
57812.9
57812.1
57811.4
57810.6
57809.9
57809.1
57808.5
57807.9
57807.5
57807.1
57806.8
57806.5
57806.2
57805.9
57805.6
57805.1
57804.6
57804
57803.4
57802.7
57801.9
57801.2
57800.4
57799.8
57799.1
57798.4
57797.8
57797.1
57796.5
57795.9
57795.4
57794.9
57794.5
57793.9
57793.4
57792.7
57792.1
57791.3
57790.7
57789.9
57789.2
57788.3
57787.5
57786.6
57785.8
57785
57784.3
57783.6
57783
57782.5
57781.9
57781.4
57780.9
57780.4
57780.1
57779.9
57779.9
57779.9
57780
57780.1
57780.1
57780
57779.9
57779.9
58521.6
58521.1
58520.2
58518.7
58516.7
58514.4
58511.7
58508.6
58505.3
58501.3
58496.9
58492.1
58486.7
58480.7
58474.3
58467
58459.4
58451.3
58443
58434.7
58426.2
58417.5
58408.6
58399.7
58390.5
58381.1
58371.5
58361.8
58351.7
58341.7
58331.5
58321.5
58311.4
58301.5
58291.6
58281.8
58272.2
58262.6
58253.2
58243.9
58234.9
58226.2
58217.9
58209.8
58202.1
58194.4
58187.1
58179.9
58172.9
58165.9
58159.2
58152.5
58145.9
58139.3
58132.8
58126.3
58119.7
58113.2
58106.4
58100
58093.6
58087.2
58080.7
58074.7
58068.7
58062.9
58057.4
58052.1
58047
58042.1
58037.4
58033
58028.7
58024.7
58020.7
58017
58013.2
58009.7
58006.1
58002.8
57999.4
57996.1
57992.8
57989.7
57986.7
57983.8
57980.8
57978.1
57975.4
57972.8
57970.3
57967.9
57965.2
57962.8
57960.4
57957.9
57955.5
57953.3
57950.8
57948.6
57946.3
57944.2
57942.1
57940
57937.9
57935.9
57933.7
57931.8
57929.7
57927.8
57925.9
57924.1
57922.2
57920.5
57918.9
57917.3
57915.9
57914.5
57913.2
57911.9
57910.7
57909.4
57908.2
57907
57905.8
57904.8
57903.7
57902.6
57901.6
57900.5
57899.4
57898.2
57897.1
57896
57895
57894
57892.9
57892.2
57891.2
57890.3
57889.5
57888.8
57888
57887.4
57886.5
57886
57885.4
57884.7
57884.1
57883.4
57882.6
57881.8
57881.1
57880.3
57879.5
57878.8
57878.1
57877.4
57876.6
57875.9
57875
57874.4
57873.6
57872.9
57872.3
57871.6
57871.1
57870.7
57870.4
57870.1
57869.6
57869.4
57869.1
57869
57868.9
57868.9
57869
57869
57869.1
57869.1
57869.1
57869.1
57869.1
57869.1
57868.9
57868.6
57868.5
57868.1
57867.9
57867.6
57867.4
57867.1
57866.9
57866.8
57866.8
57866.6
57866.5
57866.2
57866.1
57865.8
57865.7
57865.4
57865.2
57864.9
57864.7
57864.4
57864.2
57864
57863.8
57863.4
57863
57862.8
57862.5
57862.3
57862
57861.9
57861.6
57861.4
57861.1
57861
57860.7
57860.5
57860.4
57860.3
57860.1
57859.9
57859.7
57859.6
57859.5
57859.4
57859.3
57859.3
57859.2
57859.4
57859.4
57859.4
57859.4
57859.5
57859.5
57859.5
57859.6
57859.5
57859.4
57859.1
57858.8
57858.4
57857.9
57857.7
57857.3
57856.9
57856.5
57856.1
57855.7
57855.3
57854.8
57854.4
57854.1
57853.6
57853.3
57853.2
57853
57852.9
57852.8
57852.7
57852.8
57852.6
57852.5
57852.5
57852.4
57852.4
57852.3
57852.3
57852.1
57852.1
57852
57852.1
57852
57852
57851.9
57851.8
57851.5
57851.1
57850.7
57850.6
57850.4
57850.4
57850.3
57850.1
57849.8
57849.4
57849
57848.5
57848.1
57847.7
57847.2
57846.9
57846.8
57846.7
57846.7
57846.6
57846.5
57846.4
57846.1
57846
57845.5
57845.2
57844.7
57844.2
57843.5
57842.9
57842.3
57841.9
57841.6
57841.4
57841.3
57841.1
57841.1
57841.1
57841
57841
57840.8
57840.6
57840.5
57840.1
57840
57839.6
57839.5
57839.4
57839.3
57839.3
57838.9
57838.9
57838.9
57838.9
57838.9
57838.9
57838.9
57838.7
57838.5
57838.1
57837.6
57837.2
57836.6
57836.2
57835.8
57835.4
57835.2
57834.9
57834.7
57834.4
57834.2
57833.9
57833.6
57833.4
57833
57832.7
57832.6
57832.5
57832.5
57832.6
57832.6
57832.6
57832.7
57832.7
57832.6
57832.5
57832.3
57832.1
57831.8
57831.6
57831.2
57831.1
57830.9
57830.7
57830.5
57830.4
57830.2
57830.2
57830
57830.1
57830.1
57829.9
57829.8
57829.7
57829.6
57829.4
57829.1
57828.7
57828.4
57828.1
57827.7
57827.3
57827.1
57826.7
57826.5
57826.3
57826.2
57826.1
57826.2
57826.5
57826.7
57827.1
57827.5
57827.7
57827.8
57827.8
57827.7
57827.5
57827.2
57826.6
57826
57825.3
57824.7
57824
57823.4
57823.1
57822.7
57822.3
57821.9
57821.3
57820.9
57820.5
57820.1
57819.6
57819.1
57818.7
57818.3
57817.8
57817.3
57816.9
57816.5
57816.1
57815.8
57815.5
57815.2
57814.9
57814.4
57813.8
57813.3
57812.7
57812.4
57811.9
57811.5
57810.9
57810.4
57809.8
57809.3
57808.7
57808.1
57807.4
57806.7
57805.9
57805.1
57804.4
57803.8
57803.3
57802.8
57802.4
57802.1
57801.8
57801.5
57801.1
57800.7
57800.3
57799.7
57799.2
57798.6
57797.8
57797.1
57796.4
57795.8
57795.1
57794.5
57793.9
57793.3
57792.5
57791.8
57791.3
57790.7
57790.2
57789.8
57789.3
57788.7
57787.9
57787.4
57786.6
57786
57785.2
57784.5
57783.6
57782.9
57781.9
57781.3
57780.4
57779.7
57779.1
57778.6
57778
57777.5
57776.8
57776.2
57775.7
57775.2
57775.1
57775.2
57775.2
57775.4
57775.5
57775.5
57775.4
57775.5
57775.5
58515.4
58514.6
58513.5
58511.6
58509.6
58507
58504.2
58501.2
58497.1
58493.3
58488.8
58483.8
58478.4
58472.3
58465.6
58458.1
58450.4
58442.3
58434.1
58425.5
58417
58408.4
58399.5
58390.4
58381.1
58371.8
58362.1
58352.3
58342.4
58332.5
58322.5
58312.6
58302.9
58293
58283.4
58273.5
58264
58254.3
58244.8
58235.5
58226.7
58217.8
58209.4
58201.2
58193.5
58185.8
58178.5
58171.3
58164.3
58157.5
58150.8
58143.8
58137.4
58130.7
58124.2
58117.7
58111.2
58104.6
58098.1
58091.1
58084.5
58078.3
58072.1
58066.1
58060
58054.2
58048.6
58043.4
58038.5
58033.7
58028.9
58024.4
58020.1
58016.1
58012.1
58008.5
58004.6
58001.2
57997.6
57994.4
57990.8
57987.6
57984.1
57981.1
57978
57975.4
57972.3
57969.5
57966.7
57964.1
57961.5
57958.9
57956.4
57953.7
57951.1
57949.1
57946.8
57944.6
57942.4
57940.1
57938
57935.6
57933.5
57931.4
57929.3
57927.2
57925.1
57923.2
57921.2
57919.3
57917.2
57915.5
57913.5
57911.9
57910.2
57908.7
57907
57905.8
57904.6
57903.5
57901.9
57901
57899.7
57898.6
57897.5
57896.4
57895.1
57894.1
57892.9
57891.8
57890.7
57889.4
57888.5
57887.5
57886.4
57885.4
57884.4
57883.2
57882.4
57881.9
57881.1
57880.1
57879.5
57878.5
57877.9
57877.1
57876.4
57876
57875.3
57874.5
57873.9
57873.3
57872.7
57871.9
57871.2
57870.6
57869.8
57869
57868
57867.3
57866.6
57865.9
57865
57864.3
57863.7
57863.4
57862.8
57862.4
57862
57861.8
57861.5
57861.3
57860.9
57860.6
57860.5
57860.6
57860.6
57860.8
57860.9
57860.7
57860.8
57860.4
57860.7
57860.5
57860.4
57860.2
57859.7
57859.5
57859.2
57859
57858.7
57858.5
57858.3
57858
57858
57857.9
57857.8
57857.6
57857.2
57856.8
57856.7
57856.4
57856.2
57855.9
57855.8
57855.5
57855.4
57854.9
57855
57854.7
57854.5
57854
57853.7
57853.7
57853.6
57853.5
57853.2
57853
57852.7
57852.5
57852.4
57852.2
57852.1
57852
57851.6
57851.5
57851.3
57851.1
57851
57850.8
57850.7
57850.8
57850.9
57851
57851.2
57851
57851
57851.1
57851.1
57851.1
57851.1
57851
57850.8
57850.6
57850.1
57849.8
57849.4
57849
57848.6
57848.3
57847.9
57847.6
57847.2
57846.8
57846.5
57846
57845.5
57845
57844.7
57844.2
57844.3
57843.9
57844.1
57844.2
57844.3
57844.3
57844.2
57844.1
57844
57844.2
57843.9
57843.9
57843.8
57843.6
57843.6
57843.6
57843.4
57843.4
57843.2
57843.3
57843
57842.6
57842.2
57841.9
57841.6
57841.6
57841.3
57841.4
57841.1
57840.8
57840.5
57840.1
57839.7
57839.2
57839.1
57838.8
57838.5
57838.4
57838.3
57837.9
57837.9
57837.9
57837.7
57837.4
57837.5
57836.7
57836.2
57835.8
57835
57834.5
57834.1
57833.7
57833.5
57833.3
57833.2
57833.1
57833.1
57832.9
57833
57832.6
57832.5
57832.3
57831.9
57831.6
57831.5
57831.5
57831.5
57831.3
57831.3
57831.4
57831.1
57831
57830.6
57830.4
57830.5
57830.4
57830.6
57830.1
57829.9
57829.5
57829.3
57828.5
57828.3
57828.2
57827.3
57827.1
57826.7
57826.4
57826.5
57826.1
57825.9
57825.4
57825.1
57824.8
57824.6
57824.6
57824.2
57824.2
57824.2
57824.4
57824.3
57824.5
57824.2
57824.2
57824.1
57824.1
57823.7
57823.5
57823.2
57823.1
57823.1
57822.7
57822.6
57822.4
57822.3
57822.3
57822.2
57821.8
57821.9
57821.3
57821.3
57821.4
57821.4
57821.3
57821.1
57820.8
57820.6
57820.5
57820.1
57819.9
57819.5
57819.1
57818.7
57818.9
57818.5
57818.5
57818.1
57818.2
57818.3
57818.3
57818.7
57818.8
57819.1
57819.2
57819.2
57819.4
57819.2
57818.8
57818.4
57817.9
57817.5
57816.8
57816.1
57815.7
57815.3
57814.6
57814.7
57814.1
57813.5
57813.1
57812.6
57812
57811.8
57811.3
57811
57810.6
57810.1
57809.5
57809
57808.7
57808.1
57807.8
57807.4
57806.8
57806.6
57806.6
57806.1
57805.6
57805.2
57804.8
57804.3
57804
57803.4
57802.8
57802.2
57801.6
57801.1
57800.6
57800.1
57799.2
57798.4
57797.5
57796.8
57796.2
57795.3
57794.9
57794.4
57794.1
57793.7
57793.5
57793.1
57792.7
57792.3
57791.7
57791.2
57790.6
57790
57789.5
57788.8
57787.9
57787.2
57786.5
57785.9
57784.9
57784.2
57783.5
57782.9
57782.3
57781.9
57781.6
57781.1
57780.7
57780.1
57779.5
57778.7
57778
57777.4
57776.7
57776.1
57775.1
57774.1
57773.4
57772.7
57771.8
57771.1
57770.4
57769.9
57769.5
57768.7
57768.3
57767.8
57767.5
57767.3
57767
57766.9
57767
57767.1
57767.1
57767.4
57767.3
57767.2
57767.2
58506
58504.8
58503.5
58501.3
58498.8
58496.4
58493.2
58489.9
58486.4
58482.4
58477.9
58472.7
58467.4
58460.8
58454.4
58446.4
58438.3
58429.9
58421.7
58413.3
58404.9
58395.7
58386.4
58377.5
58368.7
58359.4
58349.9
58340.4
58330.3
58320.5
58310.4
58300.7
58290.9
58281.4
58271.5
58262
58252.8
58243
58233.5
58224.4
58215.2
58206.4
58198.2
58189.8
58182.4
58174.5
58167.4
58159.8
58152.6
58145.5
58139.1
58132.2
58125.1
58118.6
58112.1
58105.6
58098.9
58092.8
58085.7
58079.4
58072.9
58066.3
58060
58053.8
58047.6
58042.3
58037
58031.7
58027
58021.8
58016.8
58012.4
58008.3
58004.3
58000.7
57997.4
57992.9
57989.1
57985.5
57982.7
57978.9
57975.9
57972.3
57969.2
57965.9
57963.7
57960.4
57957.6
57954.6
57951.9
57949.1
57946.9
57944.3
57940.9
57939
57936.7
57934.6
57932.7
57930.3
57927.9
57925.7
57923.4
57921.3
57919.7
57917.1
57915
57912.8
57911
57908.9
57907.1
57905.3
57903.6
57901.5
57899.7
57898.7
57896.7
57895.4
57894.3
57893
57891.6
57890.4
57889
57887.8
57886.8
57885.5
57884.7
57883.3
57882.2
57881
57880.2
57879.3
57877.9
57876.5
57875.2
57874.4
57873.7
57872.2
57871.5
57870.6
57869.9
57869.3
57868.5
57867.5
57866.9
57865.9
57865.4
57864.8
57864.1
57863.6
57862.9
57862
57861.4
57861.1
57860
57859.4
57858.6
57858.4
57857.3
57856.5
57855.7
57854.6
57854
57853.3
57852.6
57852.1
57851.6
57850.9
57850.7
57850.4
57850.5
57850
57849.7
57849.1
57849.3
57849
57849.1
57849.4
57849
57848.9
57848.7
57849
57849.3
57849.1
57849.2
57848.9
57848.4
57847.8
57847.3
57847
57846.4
57846.2
57845.8
57845.8
57846.1
57846.7
57846.1
57845.9
57845.4
57845.3
57844.8
57844.8
57844.8
57844.5
57843.9
57843.7
57843.4
57843
57843.7
57843.6
57843.1
57842.5
57842.2
57842.2
57842.1
57842.1
57841.7
57841.3
57841.1
57840.7
57840.6
57840.1
57840.2
57840.1
57840.5
57839.8
57839.3
57839.3
57839.6
57839
57839.2
57839.1
57839.3
57839.4
57839.8
57840.2
57840.2
57840.2
57839.8
57839.8
57839.5
57839.7
57839.1
57838.8
57838.3
57838.1
57837.7
57837.3
57837.1
57836.6
57836.5
57836.2
57836
57835.3
57834.6
57834.2
57833.5
57833.6
57832.9
57832.9
57832.8
57833.1
57832.9
57832.3
57832.5
57833.1
57832.5
57832.4
57832.8
57832.4
57833.1
57832.4
57832.3
57832
57832
57831.7
57831.7
57831.8
57831.8
57831.1
57831.4
57831.7
57830.5
57830.3
57830
57829.7
57829.6
57829.7
57829.6
57829.3
57828.8
57828.1
57827.7
57827.3
57827.2
57827
57826.6
57826.8
57826.5
57827
57826.4
57826.1
57825.8
57826
57825.8
57825.5
57825.5
57824.7
57824.2
57823.2
57822.6
57822
57821.6
57822
57821.8
57822
57821.5
57821.2
57821.2
57821.4
57821.2
57821.1
57820.6
57820.3
57820.9
57820
57819.6
57819.8
57819.8
57819.6
57820.3
57819.7
57819.3
57819.1
57819.1
57819
57818.9
57818.9
57818.7
57818.2
57817.6
57817.2
57817
57816.7
57816.1
57816.2
57815.6
57814.9
57815
57815
57814.4
57813.7
57813.3
57813.3
57813.3
57813.2
57812.6
57812.5
57812.5
57812.6
57813.2
57813
57812.9
57813
57812.8
57812.7
57812.6
57812.4
57812.1
57811.9
57811.2
57811
57811
57811.1
57810.8
57810.4
57810.1
57809.7
57809.9
57809.5
57809.8
57809.8
57809.6
57809.5
57809.1
57809.1
57809.2
57809.2
57808.3
57808
57807.6
57807.6
57807.9
57807.7
57807.4
57807.7
57807.3
57806.8
57806.5
57806.3
57806.4
57806.3
57806.8
57807.1
57807.6
57807.4
57807
57806.9
57807
57806.6
57805.9
57805.2
57804.6
57804
57803.5
57803
57803
57802.2
57802.3
57801.8
57801.2
57800.8
57800.6
57800.6
57799.8
57799
57798.8
57798.6
57798.1
57797.3
57796.7
57796.3
57795.6
57794.9
57795.1
57794.8
57795.1
57794
57793.7
57793
57792.9
57792.9
57792.9
57792.2
57791.5
57790.8
57790
57789.4
57788.9
57788.7
57787.5
57786.9
57785.9
57785.1
57784
57784
57783.3
57782.6
57782.1
57781.6
57781.4
57781.5
57780.7
57780.2
57779.7
57779.2
57778.6
57778.1
57777.3
57776.6
57776.2
57775.4
57774.8
57774.5
57773.8
57773.3
57772.2
57771.4
57770.6
57770.3
57769.8
57769.5
57769.1
57768.6
57767.6
57767.2
57766.2
57765.5
57765
57764.4
57763.3
57762.6
57761.6
57761.2
57760.2
57759.7
57759.2
57758.8
57758.7
57758
57757
57756.2
57755.5
57755.1
57754.9
57755.1
57755.2
57755.6
57755.5
57755.7
57755.6
57755.7
57756.2
58493.7
58492.4
58490.3
58488.7
58486.3
58483.8
58481.2
58477.2
58472.8
58468.4
58463
58458.4
58453.6
58446.5
58440
58431.3
58423.4
58414.2
58405.6
58397.4
58389.9
58380.3
58370.8
58361.7
58353.1
58343.6
58334
58325.1
58314.8
58305.5
58295.4
58285.6
58276.4
58266.2
58257
58247.1
58238.6
58228.4
58218.9
58209.4
58200.3
58191.4
58182.9
58175.2
58168
58159.5
58152.6
58144.5
58137.5
58130.3
58124.3
58116.7
58109.5
58103.2
58097.2
58090.2
58083.9
58077.6
58069.7
58062.9
58057.3
58050.6
58044.1
58038.4
58032.6
58027.1
58022.1
58016.5
58012
58007.2
58001.8
57997.1
57992.9
57989.5
57985.2
57982.2
57977.7
57974.1
57970.5
57967.6
57963.9
57960.9
57956.6
57953.5
57951.1
57948.4
57944.8
57941.7
57939.1
57936.6
57933.5
57931.4
57929.6
57926.3
57923.6
57921.5
57919.4
57917.9
57914.9
57912.8
57910.4
57908.2
57906.3
57904.9
57902.3
57900.4
57898.4
57896.8
57894.2
57892.3
57890.5
57889.2
57886.6
57884.9
57883.8
57881.6
57880.2
57879.1
57878.7
57876.8
57875.3
57873.8
57872.9
57872.1
57870.9
57870.3
57868.2
57866.6
57866.2
57865.3
57864.7
57862.4
57861.1
57860.1
57859.4
57858.9
57857.1
57855.9
57855
57854.9
57854.7
57853.4
57853
57851.5
57850.1
57849.5
57849.3
57849
57848.9
57847.9
57846.9
57846.5
57846.4
57845.1
57844.3
57844.1
57843.8
57842.4
57840.9
57839.9
57839.5
57839.1
57838.2
57837.8
57837.1
57836.9
57836.6
57836.1
57836.1
57836.7
57836
57836
57835.6
57834.7
57834.3
57834.5
57835.3
57834.9
57834.7
57834.6
57834.6
57835.4
57835.1
57834.4
57834.4
57833.3
57832.7
57831.6
57831.5
57831.2
57830.9
57831.1
57830.7
57830.6
57831.8
57831.1
57831.5
57830.8
57830.1
57829.6
57829.5
57829.8
57829.1
57828.3
57828.2
57828.3
57828.7
57828.9
57829.1
57828
57827.5
57827
57826.6
57826.8
57827.8
57827.5
57826.8
57826.4
57826.2
57826.1
57826.5
57825.5
57825.5
57825.7
57824.7
57824.6
57824.4
57824.9
57824.5
57824.1
57824
57824.7
57824.9
57825.2
57826
57824.9
57824.8
57824.8
57825.1
57824.3
57824.7
57824
57823.7
57823.2
57822.7
57822
57821.6
57821.7
57821.8
57822.1
57821.6
57821.8
57821.3
57820.8
57819.7
57819.3
57819
57818.6
57818.4
57818.3
57818.6
57817.1
57817.8
57817.5
57818.6
57818
57817.8
57818.3
57817.7
57818.3
57817.6
57817.7
57817.2
57816.7
57816.7
57816.9
57816.9
57817.1
57817
57817.6
57817.6
57816.3
57815.4
57814.8
57814.6
57814.6
57814.3
57815
57814.3
57813.4
57813.1
57812.6
57812
57811.9
57812.3
57812.7
57812.2
57812.3
57812.8
57811.6
57811.1
57811.7
57810.7
57810.5
57810.4
57811
57810
57809.9
57808.6
57807.8
57807.3
57807.5
57807.1
57807.1
57808.1
57807.1
57806.9
57806.6
57807.4
57806.3
57806.2
57805.9
57806
57805.9
57805.4
57805.2
57806
57805.4
57805.2
57805.4
57804.4
57805.2
57804.4
57804.3
57804.1
57804.1
57804.7
57804.2
57804.2
57803.9
57803.2
57802.7
57802.1
57803
57801.4
57800.7
57800.5
57800.3
57800.9
57799.7
57799
57798.6
57798.6
57799.1
57799.1
57798.4
57797.9
57798.4
57798.8
57799.5
57798.4
57798.6
57798.5
57798.4
57798.2
57798.7
57798
57797.9
57797.1
57797.1
57796.6
57796.5
57797
57796.2
57796
57795.8
57795.5
57794.9
57794.9
57794.9
57795.1
57794.7
57794.6
57794.6
57794.6
57794.8
57795.1
57794.2
57794
57794.1
57793.4
57792.4
57793
57793.2
57793.9
57793.8
57792.4
57792
57792.4
57791.4
57791.5
57791.9
57792.7
57792.9
57792.1
57792
57792.2
57792.6
57791.6
57790.9
57790.1
57789
57788.5
57788.5
57787.8
57787.9
57787.8
57788.4
57787.3
57786.7
57786.4
57786
57786.2
57785.3
57784.9
57784.7
57784.8
57783.3
57782.4
57782.1
57781.2
57780.8
57780.6
57779.9
57779.3
57780
57778.9
57779.3
57778.4
57778
57778.2
57779
57777.4
57776.7
57776.2
57775.3
57774.6
57774.3
57774.7
57773.3
57772.9
57771
57770.1
57769.6
57769.1
57769
57768.1
57767.6
57767.1
57767.4
57767.2
57765.8
57765
57764.3
57763.8
57763.6
57763.1
57762.5
57761.9
57761.5
57760.8
57759.9
57760
57758.5
57758.1
57756.7
57755.5
57755.4
57754.5
57754.4
57754.4
57754.6
57754
57752.7
57752.4
57750.7
57750.3
57750
57748.6
57747.5
57746.7
57746
57746
57745.1
57744.5
57744.3
57743.9
57744.2
57743.4
57742.3
57741.9
57741.3
57740.5
57741.1
57740.8
57741.1
57741.6
57741.4
57741.7
57741
57741.4
57742
58478.4
58476.5
58475.3
58473.4
58471
58468.1
58466.1
58461.6
58455.8
58452
58446.6
58441
58435.6
58428
58420.1
58412.5
58404.2
58395.9
58387
58379.1
58369.1
58361.2
58351.1
58341.9
58332.7
58324.8
58314.5
58306.5
58296.6
58287.7
58276.8
58267.7
58258.8
58248.9
58239.6
58229.1
58220.4
58210.8
58200.8
58192.4
58183
58174.4
58166.2
58157.5
58149.8
58140.9
58132.6
58125.7
58118.6
58111.6
58105.4
58097.8
58090.9
58084.6
58078.8
58072.1
58065.6
58057.6
58051.2
58043.6
58039
58031.6
58025.5
58019.4
58013.8
58008.4
58002.4
57997.6
57992.4
57989
57983.5
57979.4
57975.1
57971.5
57966.9
57962.3
57959.1
57956.1
57951.5
57948.2
57944.7
57942.1
57938.4
57935.4
57931.8
57929.3
57926.4
57923.2
57920.7
57917.3
57915.2
57912.4
57910.8
57908.3
57905.9
57903
57901.5
57899.9
57897.1
57895.2
57892.7
57889.8
57887.4
57884.8
57883.2
57882.1
57879.5
57878.6
57876
57874.3
57872.1
57871.2
57867.9
57865.9
57863.8
57863.1
57862.7
57861.2
57861.4
57859.7
57858.6
57857.4
57855.5
57854.9
57852.7
57851.9
57849.7
57848.8
57848.3
57847.7
57846.8
57845
57843.3
57841.8
57841.2
57839.8
57838.9
57838.3
57837.1
57837.1
57837
57835.4
57835.5
57834.5
57833.1
57832.4
57831.1
57830.8
57830.9
57830.3
57828.6
57827.9
57827.3
57827.2
57827.3
57825.6
57825
57824.8
57823.5
57822.8
57821.9
57822.1
57820.7
57820.2
57820.7
57820.3
57819.2
57818.4
57818.6
57819.2
57818.4
57819.3
57819.5
57818.2
57816.8
57816.3
57816.2
57817.2
57817.1
57817.4
57816.2
57816.3
57817.5
57817.2
57817.2
57815.4
57813.9
57813.9
57812.8
57812.4
57812.4
57813.4
57812.3
57812.4
57811.8
57812.3
57813.5
57813.3
57811.6
57811.1
57811.4
57810.8
57811.1
57810.3
57810.1
57810.3
57811.5
57811.9
57811.2
57810.4
57808.9
57808.4
57808.5
57808.8
57810.1
57810.3
57808.9
57809.1
57808.9
57809.5
57810
57808.2
57807.7
57806.4
57806.4
57806.4
57806.5
57806.4
57806.1
57806.3
57806.6
57806.8
57808
57807.3
57808.1
57807.3
57808.3
57807.7
57806.2
57805.9
57805
57805.3
57804.9
57805.3
57805
57804.7
57804.8
57804.2
57803.7
57804.3
57803.3
57803.6
57803.2
57802.1
57801.6
57801.7
57802
57802.1
57800.8
57799.5
57798.8
57799
57799.1
57799.5
57799.2
57800
57799.2
57798.4
57798.3
57798.3
57798.7
57799.4
57799.5
57799.2
57799.1
57799.3
57799.1
57799.4
57799.3
57798.8
57798.2
57799
57797.6
57797
57796.2
57795.8
57796.5
57797.7
57797.3
57796.1
57795.4
57795.1
57795.1
57794.6
57795.5
57796.3
57795.1
57794.2
57794.3
57793.1
57793.5
57794.5
57792.9
57792.8
57792.8
57792.3
57791.5
57791.1
57789.7
57789.6
57790.1
57791.3
57790.9
57790.1
57790.8
57789.4
57789
57789.2
57790
57789.3
57789.8
57789.5
57788.5
57789.6
57787.9
57787.9
57789.1
57788.3
57788
57787.2
57787.1
57788.1
57787
57787.5
57786.7
57786.5
57787.2
57787.1
57786
57785.5
57785.8
57785.1
57785.2
57786.4
57783.6
57784.1
57784
57782.8
57783
57782.3
57781.6
57780.9
57780.1
57780.3
57779.7
57780.4
57780.4
57781
57781.9
57781.8
57781.1
57781.7
57781.7
57781
57781.1
57781.6
57780.4
57780.6
57779.4
57779
57779.6
57779.1
57779.2
57778.6
57778.9
57778.8
57777.8
57777.6
57777.5
57776
57777.3
57776.7
57777.1
57776.9
57776.6
57777
57775.9
57776.1
57775.9
57776.3
57776.1
57776.2
57776.9
57776.2
57775.9
57776.8
57775.4
57775
57775.8
57774.9
57774.5
57774.9
57775.3
57774.2
57773.9
57773.8
57774.3
57773.7
57774.2
57773.6
57773
57772.5
57772.5
57772.6
57772
57771.5
57771.2
57772.2
57770.2
57769.6
57768.6
57768.4
57768
57768.3
57767.6
57767.6
57767.6
57766.7
57765.5
57765.4
57764.7
57763.7
57764.1
57762.8
57761.4
57760.5
57760.4
57760.8
57760.1
57760.5
57761.4
57761.6
57760.3
57760
57759.2
57757.5
57757
57756.7
57756.6
57755.1
57754.5
57753.7
57753.5
57752.2
57751.3
57751.8
57750.9
57749.6
57749.1
57749.8
57748
57747.5
57748
57747.1
57746.5
57746.3
57746.1
57744.6
57743.5
57743
57742.3
57742.2
57742.6
57740.6
57740.6
57738.4
57738
57737
57736.8
57737
57737.1
57736.4
57734.7
57733.4
57732.7
57732.5
57731.7
57731.6
57731
57729.5
57728.3
57727.6
57726.8
57726.9
57726.8
57727
57725.6
57725.6
57726.6
57725.2
57725.6
57725.1
57724.2
57725
57724.2
57724.1
57725.2
57724.2
57724.8
57723.5
57723
57722.9
58458.1
58456.1
58455.2
58454.4
58450.9
58448.9
58444.5
58441.1
58437
58433.3
58426.6
58421
58415.2
58407.9
58399.2
58392.1
58384.3
58374
58365.2
58357.6
58347.1
58339.3
58330.4
58320.6
58310.8
58302.8
58292.8
58283.7
58273.9
58265.2
58255.4
58246.4
58235.6
58226.3
58215.6
58206.3
58196.5
58188
58180.1
58172.1
58162.7
58154.9
58146.8
58137.6
58127.9
58119.6
58111.2
58103.7
58096.4
58088.7
58082
58076.1
58069.2
58062.9
58055.4
58050
58042.7
58034.6
58028.9
58022.4
58016.9
58010
58003.8
57997.7
57991.7
57987.1
57980.9
57976.1
57970.6
57966.6
57961.8
57957.7
57953.2
57948
57944.8
57941.1
57937.1
57934.8
57930.3
57925.4
57922.5
57919.2
57916.9
57914.2
57910.4
57907.3
57905.6
57901.8
57898.4
57895.8
57894.6
57890.6
57887.7
57886.2
57884.8
57881.7
57879
57877.8
57874.5
57872.3
57871.6
57868.8
57866.4
57862.7
57860.9
57859.8
57857.6
57856.5
57854.2
57853.5
57851
57850.1
57847.2
57844.2
57842.1
57841.4
57841.3
57839.7
57839.2
57838.6
57838.1
57837.8
57834.9
57834.4
57831.5
57829.3
57828.6
57828.1
57826.8
57825.9
57824.2
57824.2
57821.9
57821.1
57820.8
57818.6
57818.2
57817.3
57815.8
57814.6
57813.6
57813.7
57812.8
57813
57811.9
57812.1
57811.5
57810.6
57809.1
57809.2
57807.3
57806.9
57805.6
57805.5
57806.7
57805.3
57804
57803.9
57802.8
57801.6
57801.6
57801.3
57799.9
57800.6
57801.7
57801.1
57799.1
57797.6
57797.2
57796.5
57797
57797.7
57796.6
57797.9
57796.5
57795.6
57794.5
57794.8
57794.2
57793.6
57793.6
57793.6
57794.7
57796.1
57795.5
57794.3
57794.5
57792.4
57791.9
57790.4
57790.5
57790.4
57791.1
57791.8
57791.3
57790.7
57791.3
57790.1
57790.1
57789.9
57790.1
57789.4
57789.6
57788.8
57789
57789.9
57790.2
57790.9
57789.3
57789.7
57788.2
57787.8
57787.6
57787.6
57787.3
57788.7
57788
57788.8
57787.9
57788.7
57785.8
57786.2
57785.7
57784.8
57784.9
57785.7
57785.8
57785.3
57785.4
57786.3
57786.4
57786.7
57786.5
57786.6
57786.2
57786.7
57787.4
57786.5
57784.1
57783.6
57783.3
57783.8
57784.4
57784.2
57784.5
57783.5
57783.3
57783.8
57782.9
57783.3
57782.4
57782
57781.1
57781.6
57779.7
57781.3
57781.4
57780.1
57781.1
57780.4
57777.9
57779.3
57779.4
57778.7
57777.7
57778.6
57778.5
57777.6
57777.7
57778.2
57777.6
57777.6
57778.6
57777.5
57778
57778.6
57778.2
57779
57778.5
57777
57776.5
57777.6
57776.2
57775.8
57775.3
57775.5
57776.1
57776.4
57776
57774.8
57774.6
57774.4
57773.6
57773.8
57774.6
57772.2
57773.5
57773.1
57770.8
57770.8
57772
57771.7
57771.6
57772.2
57772
57770.6
57770.6
57769.6
57769.5
57769.2
57768.4
57768.1
57769.8
57768.5
57769.8
57768.7
57768.9
57768.7
57768
57768.3
57769.9
57770
57769.4
57769.4
57767.4
57766.2
57766.3
57767.9
57767.5
57766.1
57766.3
57764.9
57765.7
57767.2
57765.9
57765.6
57766
57766.6
57765.7
57765.7
57764.6
57764.5
57763.3
57764
57762.8
57763.8
57761
57761.4
57760.2
57761.5
57760.8
57759
57758.5
57758.6
57758.6
57760.4
57760.3
57759.5
57758.8
57758.7
57759.8
57759.8
57760.6
57759.6
57760.2
57759.9
57759.4
57758.7
57758.7
57758.6
57759.2
57757.7
57757.3
57757.2
57758.7
57758.2
57757.3
57756.6
57757.5
57756
57756.7
57756.1
57756.5
57755.4
57756
57756.3
57755.2
57754.8
57755.6
57756.9
57756.2
57756.7
57756.9
57755
57754.8
57755.9
57754.5
57753.8
57753
57754.4
57753.2
57752.8
57753.2
57752.3
57752.4
57752.6
57752.5
57752.9
57754.1
57752.6
57753
57752.9
57753.1
57751.9
57753.4
57751.9
57751
57751.4
57750.7
57749.3
57748.7
57748.4
57747.2
57748.3
57747.5
57746.2
57745.5
57746.4
57744.5
57744.9
57744.8
57742.7
57741.3
57741.7
57740.5
57738.4
57738.3
57738.3
57739.3
57740.3
57741
57739.1
57739.4
57739.2
57738
57736.7
57735.6
57736.5
57735.1
57734.8
57733.7
57732.4
57733
57730.8
57730.8
57730.7
57730
57729.1
57727.7
57728
57726.3
57726.2
57727.6
57725.8
57725.7
57726.4
57726
57724.3
57723.4
57722.5
57721.6
57720.6
57720.8
57719.2
57718.8
57717.7
57718.3
57716.5
57715.5
57715.5
57715.6
57713.5
57712.4
57712
57710.9
57711.6
57710.1
57709.2
57709.8
57707.7
57706.9
57706.2
57706.1
57705.9
57705.9
57706.7
57705.7
57704.1
57705.8
57704.6
57705.5
57704.7
57704.6
57703.3
57703.8
57704.4
57705.2
57703.9
57704.3
57703.3
57702
57701.2
58434.9
58432.7
58432.1
58432.2
58431
58427.9
58422.5
58420.4
58416.1
58411.6
58404.9
58397.5
58390.4
58384.5
58375.6
58368.8
58359.8
58350.9
58341.8
58330.7
58322.1
58313.2
58306.2
58296.3
58285.6
58275.4
58267.2
58259.7
58248.9
58239.2
58230.9
58221.7
58210.5
58200.7
58190.3
58181.8
58172.3
58162.7
58155.3
58145.3
58137.4
58130.8
58122.6
58114
58103.2
58094.4
58085.8
58078.5
58071.6
58064.1
58057.1
58051.3
58043.2
58037.4
58029.3
58023
58015.2
58008.4
58003.3
57997.6
57990.7
57984
57978.7
57973.3
57966.7
57960.9
57954.2
57949.4
57943.8
57938.8
57934.1
57930.3
57927
57922.6
57920.2
57917.3
57913.3
57910.9
57906.6
57901.4
57898.2
57893.9
57890.4
57888.6
57885.8
57882.4
57881.6
57877.7
57874.6
57871.4
57868.9
57864.8
57861.6
57861.1
57857.1
57856.8
57854.7
57852.7
57849.5
57846.4
57845.6
57843.7
57841.8
57837.8
57835.8
57833.7
57832.3
57830.1
57829.4
57828.4
57826.6
57825.2
57822.9
57819.2
57816.5
57816.4
57814.2
57814.8
57813.7
57813.9
57811.6
57811.9
57809.8
57809.5
57806.8
57804
57803.4
57804
57802
57800.5
57799.4
57798.4
57798.2
57797.7
57797
57794.5
57793.9
57792.1
57792.1
57790.8