/*--------------------------------*- C++ -*----------------------------------*\
| =========                 |                                                 |
| \\      /  F ield         | OpenFOAM: The Open Source CFD Toolbox           |
|  \\    /   O peration     | Version:  v2012                                 |
|   \\  /    A nd           | Website:  www.openfoam.com                      |
|    \\/     M anipulation  |                                                 |
\*---------------------------------------------------------------------------*/
FoamFile
{
    version     2.0;
    format      ascii;
    class       surfaceScalarField;
    location    "100";
    object      phi;
}
// * * * * * * * * * * * * * * * * * * * * * * * * * * * * * * * * * * * * * //

dimensions      [1 0 -1 0 0 0 0];
oriented        oriented;


internalField   nonuniform List<scalar> 
130432
(
27.6275
-27.0341
53.6089
-25.9464
79.0762
-25.4593
104.61
-25.5461
129.663
-25.0772
154.78
-25.1376
179.912
-25.1659
204.647
-24.7945
229.426
-24.8248
253.203
-23.8383
277.239
-24.113
300.862
-23.716
323.175
-22.4239
344.822
-21.7717
365.555
-20.8713
385.914
-20.5002
405.82
-20.0571
425.199
-19.536
443.265
-18.2325
459.864
-16.7748
476.79
-17.0982
492.531
-15.9215
506.958
-14.6032
522.352
-15.5677
537.897
-15.7026
551.045
-13.312
562.583
-11.6856
574.444
-12.0054
585.569
-11.2455
596.115
-10.6604
606.384
-10.3621
615.063
-8.77056
621.576
-6.59999
627.849
-6.34975
634.305
-6.54271
639.332
-5.10665
643.643
-4.37438
646.898
-3.31131
649.194
-2.33436
651.715
-2.52209
653.336
-1.59625
653.705
-0.309181
653.063
0.727786
651.511
1.6522
650.012
1.62257
648.638
1.49986
647.248
1.52581
644.867
2.52628
641.322
3.69485
637.1
4.37526
632.104
5.15235
627.724
4.52339
623.107
4.74542
618.291
4.92625
612.756
5.62373
606.326
6.50122
599.921
6.44234
592.925
7.02392
585.341
7.59917
577.895
7.45799
570.567
7.33317
562.233
8.3297
553.543
8.68811
544.996
8.54971
535.973
9.04281
527.285
8.73251
519.025
8.3203
510.132
8.96056
502.795
7.40112
496.471
6.37737
489.497
7.03511
481.715
7.83671
473.273
8.49297
464.538
8.77525
455.767
8.79448
447.33
8.44318
438.728
8.60139
430.02
8.68996
421.569
8.43209
412.904
8.64469
403.773
9.10019
395.197
8.55713
387.08
8.0952
378.634
8.43274
369.828
8.79776
361.986
7.838
355.078
6.9053
347.79
7.28539
339.955
7.83095
332.23
7.71905
324.707
7.52983
317.36
7.35546
310.35
7.03385
303.568
6.80456
296.266
7.33502
288.781
7.49488
281.816
6.9682
275.188
6.62534
268.888
6.2809
262.668
6.19018
256.075
6.56673
250.166
5.87456
244.634
5.50049
239.929
4.6694
235.482
4.41319
229.997
5.44863
223.748
6.216
217.881
5.82378
212.601
5.24344
207.176
5.39028
200.989
6.14961
195.364
5.59479
190.489
4.84537
186.059
4.41693
182.365
3.69289
178.422
3.95853
174.934
3.52285
172.081
2.90423
169.181
2.93765
166.308
2.9286
163.123
3.24476
159.306
3.8628
155.521
3.80811
151.45
4.08109
146.754
4.69247
142.198
4.55745
138.024
4.16705
134.305
3.7129
130.764
3.53825
126.978
3.7872
123.085
3.90486
119.569
3.53807
116.026
3.56981
112.984
3.07534
111.051
1.98342
109.688
1.41371
107.621
2.11207
105.049
2.62991
101.986
3.10615
98.5062
3.50996
95.4092
3.13052
92.8437
2.6019
90.7174
2.17021
89.1455
1.62631
87.9088
1.28646
86.645
1.31771
84.8191
1.86376
82.2955
2.5501
80.1975
2.1271
77.8847
2.34015
75.7274
2.18688
74.5536
1.21299
74.3558
0.249898
74.0251
0.402548
72.6079
1.5067
71.012
1.68269
69.85
1.2581
69.0989
0.85627
67.7142
1.50246
65.8403
1.98521
63.8223
2.11188
61.568
2.33818
58.5158
3.13615
55.7974
2.79194
54.1693
1.69421
53.1157
1.11147
52.9111
0.243951
52.0917
0.864119
50.6262
1.51349
48.1688
2.52099
45.2909
2.95081
43.0967
2.28746
41.0411
2.18135
40.4125
0.786778
40.1835
0.389485
39.5858
0.76188
39.6237
0.126524
40.1125
-0.353904
40.4095
-0.16755
40.264
0.250268
39.9932
0.359802
39.2176
0.85927
38.4816
0.771386
38.6301
-0.134196
38.161
0.461465
36.6216
1.52455
34.9907
1.61073
33.4572
1.53118
32.0948
1.36711
31.1979
0.911057
30.4307
0.792374
29.9939
0.462452
29.5817
0.443255
29.5001
0.133022
29.7524
-0.213167
29.5763
0.201548
28.6793
0.914556
26.9897
1.69647
25.4325
1.56623
24.1306
1.3148
23.8766
0.267012
24.1528
-0.25817
24.7154
-0.559023
25.633
-0.914874
24.8192
0.810154
23.2385
1.56936
22.5169
0.707143
21.8413
0.653998
21.2581
0.560726
20.3214
0.914957
20.1516
0.146889
21.0484
-0.910298
21.2954
-0.254306
20.7232
0.550039
19.7568
0.946995
18.7898
0.933282
17.9224
0.831502
16.8879
0.998663
15.436
1.42112
14.3504
1.05627
13.985
0.339145
12.9508
1.01465
12.0208
0.920785
12.22
-0.208431
12.7199
-0.475014
13.3542
-0.596192
13.8952
-0.475446
14.7219
-0.740512
15.0337
-0.210759
15.2003
-0.0490762
16.2225
-0.891009
16.5618
-0.221489
15.8702
0.807348
14.354
1.62164
13.0506
1.40811
12.0163
1.12961
10.754
1.36214
10.6626
0.175143
11.3662
-0.621116
11.8178
-0.379239
12.3875
-0.515864
12.4415
-0.00788352
12.2118
0.261877
12.6638
-0.425439
13.0247
-0.337406
12.8036
0.234231
12.4939
0.317198
12.1876
0.309292
11.9568
0.228819
11.3033
0.652513
9.68666
1.60935
9.20457
0.479689
9.41711
-0.223581
9.83462
-0.425543
11.0451
-1.21061
10.9277
0.125118
10.1827
0.763252
9.77997
0.410092
9.34702
0.456276
9.22056
0.14283
9.25486
-0.0245665
8.43429
0.826887
7.95621
0.460922
7.90496
0.0217354
7.79148
0.0667043
8.13983
-0.412078
8.23429
-0.163478
8.51091
-0.358587
8.87365
-0.450744
9.22028
-0.441628
9.82303
-0.691329
9.96668
-0.223954
8.79032
1.10912
7.05941
1.67434
5.62062
1.38996
4.99522
0.583832
4.70206
0.254307
5.12836
-0.465251
5.81926
-0.728932
6.5306
-0.764205
7.1857
-0.698554
7.14566
0.00832516
6.10551
1.02084
5.1078
0.989088
5.59303
-0.491885
6.317
-0.730285
6.53859
-0.21309
6.47795
0.081779
6.84219
-0.332914
6.80929
0.0797174
6.70437
0.159215
6.92677
-0.156825
6.65661
0.341296
5.85326
0.872963
4.76037
1.15571
4.25655
0.555595
3.80216
0.509322
3.32051
0.523089
3.66086
-0.288646
3.97405
-0.266112
3.50152
0.528293
2.91799
0.63097
2.31986
0.672712
2.69111
-0.279386
4.40089
-1.61829
5.99113
-1.47749
5.99089
0.0925694
5.14188
0.933643
4.54353
0.664399
4.55677
0.0551875
4.99253
-0.370267
6.33576
-1.28286
6.96982
-0.569546
6.96834
0.0482431
7.12766
-0.122116
6.3733
0.776008
5.51547
0.866546
4.91843
0.613016
4.64293
0.294043
4.10432
0.562781
3.65724
0.491486
3.40093
0.308064
2.90273
0.550877
2.72434
0.254281
2.57618
0.205737
2.33694
0.294463
2.39427
-0.0061173
2.96106
-0.510656
4.97293
-1.96571
7.37209
-2.35254
8.45779
-1.04423
8.99264
-0.503417
9.59289
-0.56396
9.50803
0.119219
8.71162
0.825112
7.64596
1.0956
6.63105
1.02866
5.36421
1.29985
3.63833
1.75842
2.43306
1.23857
1.8077
0.659109
1.76268
0.0834365
2.12853
-0.332407
2.39909
-0.281447
2.91124
-0.49605
3.27001
-0.344018
3.47397
-0.200951
4.23456
-0.762551
5.32209
-1.10136
5.59438
-0.296801
5.05929
0.511089
3.90472
1.12966
2.71532
1.17968
2.25714
0.463983
2.53814
-0.263967
2.8049
-0.248063
3.34043
-0.502411
4.11119
-0.73705
4.42435
-0.281937
4.64294
-0.175398
4.84708
-0.168279
4.71174
0.167631
5.01045
-0.249466
5.8923
-0.828597
6.47698
-0.525437
6.67112
-0.138013
6.62662
0.109936
6.3875
0.306501
6.03169
0.434029
5.80045
0.311918
5.70085
0.191994
6.3166
-0.505326
6.60357
-0.170115
6.56631
0.154741
7.0237
-0.332297
7.10858
0.0292987
6.98852
0.234939
6.6424
0.462166
6.40402
0.337996
5.63485
0.863602
4.62911
1.07648
4.74599
-0.0695092
4.66983
0.105433
4.08862
0.588352
4.31635
-0.231662
4.3783
-0.0680915
3.80414
0.567406
2.95974
0.829194
2.79911
0.157484
3.62762
-0.821059
4.38335
-0.735167
5.95515
-1.53835
7.48748
-1.50226
8.1122
-0.612626
8.57963
-0.462428
8.45828
0.107316
8.03796
0.393782
7.03304
0.965264
5.73804
1.24394
4.62116
1.0695
3.51051
1.05189
2.58756
0.876776
2.19242
0.340021
2.7671
-0.60089
2.81407
-0.0609282
2.51178
0.289369
2.57486
-0.0498755
3.55252
-0.950287
5.01411
-1.42075
5.75396
-0.699213
6.11126
-0.323871
6.19072
-0.0479592
5.95068
0.265287
5.36233
0.591616
4.00554
1.34491
3.20996
0.787537
3.70725
-0.526538
4.53245
-0.857212
5.51549
-1.00862
5.5748
-0.0821787
5.43392
0.120083
5.58776
-0.164819
5.52369
0.0447333
5.6642
-0.161601
5.86355
-0.226157
6.0439
-0.21716
5.84203
0.175097
5.38852
0.43288
5.05003
0.327861
4.41985
0.628227
3.95309
0.485721
3.58134
0.39703
3.48632
0.126267
3.38691
0.142064
3.70118
-0.282114
4.18282
-0.478219
4.32
-0.131847
4.19468
0.124147
3.7928
0.380838
4.45324
-0.689321
4.99577
-0.58006
5.55099
-0.607358
5.95312
-0.482532
5.49149
0.38396
5.14938
0.24915
5.23162
-0.186626
5.81859
-0.690543
6.30088
-0.583985
6.01996
0.190603
5.65229
0.278268
6.04787
-0.470947
6.69856
-0.719359
7.20542
-0.58398
7.38201
-0.270948
7.4969
-0.207774
7.37309
0.0123037
6.57944
0.684735
5.40363
1.06931
4.53363
0.766603
4.02571
0.407099
3.89501
0.0422004
3.18597
0.627924
2.15965
0.967363
1.41093
0.695135
0.67121
0.692172
0.436506
0.195761
1.13483
-0.732212
1.94948
-0.845743
2.99671
-1.06657
4.75879
-1.75233
6.5023
-1.73221
7.11535
-0.59026
7.01082
0.13727
6.91881
0.134917
5.75139
1.21519
4.2953
1.4988
3.10147
1.23902
1.93432
1.20219
1.17963
0.7854
0.722078
0.467155
0.305831
0.415305
-0.234031
0.527906
-0.856505
0.585123
-0.450897
-0.457772
0.83303
-1.33859
1.29599
-0.519371
1.22551
0.00740601
2.43407
-1.25539
4.578
-2.17553
4.92752
-0.394521
4.95765
-0.073807
5.83634
-0.92983
5.75551
0.0300147
4.70335
0.996504
3.82365
0.820776
2.45962
1.30279
1.21301
1.18325
0.676109
0.476636
0.27733
0.35239
0.54053
-0.297816
1.08016
-0.550359
1.40063
-0.323448
0.916707
0.486422
0.0467148
0.873744
-0.526159
0.596182
-1.60764
1.09925
-2.10308
0.502786
-1.45874
-0.637637
-0.622581
-0.847383
0.0401528
-0.671467
0.260387
-0.226337
0.268817
29.1292
-56.1215
54.4799
-51.3011
77.7956
-48.8146
101.488
-49.2397
125.445
-49.0436
149.624
-49.3576
175.079
-50.6366
201.732
-51.4326
228.408
-51.5584
252.796
-48.3383
275.301
-46.7197
296.398
-44.8896
318.148
-44.2612
341.782
-45.5065
364.497
-43.702
385.989
-42.1202
406.984
-41.1299
427.028
-39.7086
445.001
-36.3793
459.754
-31.6798
473.595
-31.1204
488.049
-30.5208
503.143
-29.8274
518.279
-30.8229
533.138
-30.71
548.478
-28.7561
563.24
-26.5555
575.44
-24.2558
584.768
-20.6829
594.721
-20.6763
604.76
-20.5045
613.854
-17.9432
621.338
-14.1797
625.707
-10.8486
629.6
-10.5357
633.574
-9.18638
638.243
-9.19937
643.632
-8.77533
647.65
-6.37489
650
-4.89416
649.982
-1.55825
649.662
0.0522475
649.623
0.814431
649.103
2.27054
649.397
1.37691
647.816
3.18054
643.898
5.55418
640.541
6.01859
637.344
7.07133
634.085
7.76007
630.54
8.76801
626.892
8.29306
621.893
9.85426
615.551
11.3659
609.783
11.4487
603.992
12.3095
596.936
13.5508
589.999
14.0027
582.659
14.9528
573.583
16.5257
565.021
15.894
557.438
15.9107
550.192
15.9271
543.567
15.2161
535.899
16.7657
526.531
18.1239
517.17
17.715
508.059
18.1303
499.39
16.141
490.456
15.4183
483.727
13.8283
477.788
13.8425
468.675
17.6307
459.743
17.7146
452.859
15.6753
446.156
15.1409
439.083
15.6696
430.132
17.6589
419.095
19.4906
409.084
18.6449
400.163
18.022
391.045
17.6151
382.836
16.2811
376.221
15.0308
369.251
15.7961
361.566
15.5362
353.641
14.863
346.049
14.8862
339.584
14.3034
331.48
15.8415
321.993
17.003
313.999
15.3632
306.007
15.0004
298.873
14.0103
293.425
12.8099
287.609
13.3255
281.543
13.0227
276.17
11.9535
270.373
12.0463
263.832
12.7321
255.768
14.5814
248.152
13.4761
242.208
11.4068
236.886
9.96748
231.354
9.92326
226.759
10.0649
223.202
9.79142
218.288
10.7823
211.765
11.7693
204.595
12.5151
197.256
13.4427
192.887
9.90871
189.893
7.83796
184.963
9.33678
178.901
9.75456
174.164
8.69122
173.282
4.43364
173.021
3.16689
170.365
5.69722
165.336
7.974
159.764
8.84547
154.952
8.67154
151.666
7.13075
149.527
6.2452
146.629
7.58961
142.886
8.24719
139.18
7.87232
133.762
9.12193
128.762
8.56835
126.85
5.70001
124.472
6.23717
120.457
7.52752
116.674
7.36231
113.7
6.08737
110.923
4.79205
109.353
3.02429
107.126
4.3916
103.274
6.50723
100.761
5.65258
99.4379
4.84519
97.1362
5.42094
94.6638
5.09543
91.8095
5.02238
88.6266
4.83752
86.6533
3.28509
84.3309
3.63077
81.4483
4.76946
79.0006
5.04349
77.7573
3.3982
78.0486
2.09092
77.9202
2.36287
76.3604
2.81791
75.1986
1.47461
73.97
1.69501
72.3545
3.17499
70.2306
3.91198
68.1997
3.39519
67.3244
1.83513
65.1662
3.72144
62.7978
4.40994
60.0831
4.92207
58.2602
4.2576
57.5866
3.8573
55.9781
4.45171
54.275
3.42938
52.7892
2.59316
52.2705
0.847108
50.3408
2.83583
48.8655
3.04697
48.1226
3.29928
45.4324
5.71496
43.7355
4.09455
43.4044
2.64429
43.711
0.585623
42.6975
1.56681
39.9784
3.64659
38.1602
2.09227
38.9716
-0.973163
41.4288
-2.49762
41.2573
0.596945
38.7769
2.94197
36.7541
2.93362
35.7058
1.89997
35.2178
0.368428
34.6187
1.04678
35.2265
0.884831
36.321
0.563364
36.1465
1.69982
35.5652
1.9952
34.0186
2.49917
31.785
3.0735
30.764
1.5512
29.045
2.23166
27.695
1.47876
27.5916
-0.0952307
26.2735
1.54043
25.5858
1.60728
26.9247
0.371027
27.4838
1.00514
25.7481
3.05803
24.5321
1.49839
23.474
0.780715
22.0232
0.898953
22.0138
-0.917092
23.7919
-0.989336
24.9608
0.397563
23.7308
1.94337
21.1159
3.26665
19.1413
2.50063
18.3978
1.62575
18.8297
-0.29692
20.6188
-2.70551
22.9629
-2.64534
24.2939
-0.805388
23.7233
1.4402
21.2374
3.38677
18.1015
3.94421
16.4536
2.6158
16.6755
1.16572
16.5514
1.14795
15.7087
1.14966
14.2924
2.40944
12.5993
2.6061
11.7805
0.650218
11.3073
0.0043557
13.5244
-2.75177
16.3354
-3.21342
16.6518
-0.956786
15.5788
0.999338
14.3667
1.29049
13.7031
-0.145489
13.0648
0.555292
14.4435
-0.463322
16.1949
-0.020359
15.0478
2.587
12.919
3.29671
11.3031
2.97533
10.1512
1.39038
9.40334
0.173566
9.1938
-0.135333
10.4383
-1.70355
10.912
-0.430294
9.03544
2.22991
8.21014
0.421394
9.69765
-1.81979
13.126
-3.19677
15.0253
-1.61145
12.9677
2.37356
10.5661
2.65338
9.96736
1.26878
10.8165
0.765592
12.1011
-0.830156
11.2294
0.684343
9.28623
1.56196
9.93337
-1.85809
11.6749
-1.58908
12.1953
0.292912
11.7048
0.99754
10.3726
1.80817
8.97542
1.61267
9.57536
-0.625158
10.2281
0.173796
8.7006
2.02395
6.72057
1.98264
6.85338
-0.084952
7.89351
-1.48965
7.03065
0.618039
6.52714
0.0719537
7.90401
-1.91117
9.67554
-2.29727
9.45842
-0.559735
7.69941
1.4731
7.52108
1.19032
7.2977
1.82147
5.42581
3.2055
5.20165
0.754564
4.87211
0.5407
3.39682
0.980384
3.2052
-0.524026
5.50897
-3.03557
7.46858
-2.67871
7.06074
0.41208
6.8232
1.21175
7.31625
0.469257
7.0189
-0.213246
5.37366
0.929932
4.41968
0.763525
6.56841
-2.05898
9.157
-2.89609
8.85914
0.402664
9.53736
-0.465979
10.3345
-0.893409
8.17579
2.55543
6.10378
3.00923
6.05193
1.22103
6.1057
0.546247
5.0849
1.5546
4.46661
1.18166
3.94161
0.193029
3.22132
0.462415
3.35733
0.397758
3.18312
0.913647
2.32591
1.56469
3.42625
-1.31168
4.96313
-3.06708
5.32971
-1.76058
5.55506
-0.0322484
5.39224
1.1265
4.58572
1.55588
4.47686
0.221575
4.26784
-0.0921064
4.43502
-1.36442
4.09759
-0.237708
4.86065
-0.68577
6.35674
-1.59101
4.71664
2.45308
2.97072
2.66418
3.21798
0.384233
5.40467
-1.91107
6.95552
-0.966651
6.50146
0.922733
4.73547
2.11293
2.96577
2.41603
3.60049
-0.41663
3.53509
0.344622
1.95714
1.9168
0.96622
1.00352
0.308495
0.147088
2.25108
-3.83359
6.44089
-6.44212
9.86437
-4.44875
10.8871
-1.4979
9.85096
0.50118
8.67974
1.31338
7.62131
1.89658
5.65633
3.06395
5.62098
1.11697
6.08922
0.849068
4.32434
3.58344
4.00778
1.66657
3.56932
1.17053
1.50125
2.20731
0.324759
0.835907
0.745549
-0.603692
3.6333
-3.40869
6.91789
-3.70538
6.64442
0.082717
5.58172
0.28273
5.85688
-1.43052
5.0381
0.476073
3.87209
1.64068
3.77736
1.2189
3.50016
1.45166
2.54763
1.41946
2.48942
-0.195948
1.71468
0.558159
0.195844
1.04697
1.05751
-1.566
3.35662
-2.55474
5.0816
-1.94353
5.93492
-0.986233
5.51272
0.645826
5.91601
-0.589941
6.64198
-1.51041
6.57346
-0.406423
7.4899
-0.957799
7.87632
-0.197472
6.67927
1.58403
4.63414
2.55783
3.15149
1.9332
3.34682
0.0935187
6.08842
-3.16781
7.94897
-1.94946
7.37892
0.81977
7.19107
-0.0644341
7.00546
0.369639
6.4096
0.974665
5.16465
1.83365
4.13291
1.47556
3.89095
1.19671
5.0512
0.00324777
7.06681
-2.03617
7.9306
-0.752266
7.27229
1.28253
5.45232
1.61282
3.41253
1.9931
3.03287
0.953286
3.84994
0.0693906
4.15507
-0.0852687
3.56946
-0.165378
2.99582
-0.0967076
5.91961
-4.4658
8.69425
-4.23259
8.54943
-0.452012
8.65382
-0.588156
7.73963
0.990131
6.62926
1.46755
6.49066
1.0495
6.39724
1.28337
5.10709
2.30349
3.03289
3.10083
1.9673
1.88578
2.1318
0.199115
1.92181
-0.415068
0.399638
1.45145
-0.140381
0.870871
0.576185
-0.742562
2.57654
-2.92573
5.41038
-4.22535
7.64762
-2.89463
8.86581
-1.49979
8.46281
0.391221
6.3875
2.35665
4.27115
2.71161
3.59564
1.98444
4.57783
-0.227545
5.20302
-1.12357
4.51867
-0.1232
4.74424
-1.22805
5.50039
-0.846994
6.25763
-0.633044
5.65332
0.425368
4.30533
1.37826
3.90787
0.216999
3.07797
0.576613
2.62006
0.217499
3.42417
-0.668796
5.49788
-1.70227
6.22619
-0.430205
5.1314
1.71182
5.29447
0.332586
5.4534
0.26334
4.73608
0.89295
3.48913
1.38461
3.8276
-0.643242
4.43324
-1.03936
3.98851
0.309521
5.25118
-1.17855
6.45436
-0.82565
7.1772
-1.47422
7.38198
-0.879499
6.70272
-0.0840722
5.93779
0.208983
5.213
0.960828
4.99032
0.358445
4.60424
0.103867
4.32819
-0.531931
5.38177
-1.76214
6.09012
-0.660511
5.08695
1.23041
3.57892
0.945672
2.60607
0.165954
3.10233
-1.18056
5.17729
-2.42992
6.85599
-2.01433
7.10024
-0.29923
7.84339
-0.140899
8.12069
0.682091
6.09089
2.70433
4.30419
2.12244
3.81251
0.451503
2.63511
1.74148
3.13246
0.341188
3.79748
-0.0456296
2.6409
1.7813
2.75662
0.0283817
2.72892
-0.743749
1.94411
-0.0660983
2.06422
-1.16275
2.58251
-2.27822
4.89991
-3.99696
6.39922
-2.06515
5.60275
0.913283
6.7204
-0.99815
6.64679
1.28377
4.33068
3.81525
2.34013
3.22023
-0.468456
4.047
-2.45089
2.75904
-2.6232
0.641433
-1.78353
-0.428265
1.07088
-2.38421
3.73699
-2.11606
4.57555
-1.33562
4.14464
-0.975658
2.19331
1.34707
0.444463
1.72319
0.0290742
-0.887483
0.721308
-2.93176
1.06137
-0.773376
1.40193
-0.476209
3.34666
-2.93762
5.62862
-2.29496
6.38596
0.184772
6.31904
0.821804
5.21996
2.33203
3.6203
2.71993
1.26418
2.75618
-1.44769
3.00519
-2.12913
0.328468
-1.47971
-1.23648
1.17208
-2.94963
3.80674
-2.11849
3.95535
0.790084
2.55264
2.01371
0.152174
3.51075
-0.305633
0.991068
-0.137
-0.792612
-1.20777
0.246969
-1.92103
0.0749626
-1.60392
-0.495001
-1.34049
28.119
-84.2536
53.1424
-76.3588
77.2561
-72.956
101.854
-73.9368
126.425
-73.6759
150.726
-73.736
175.675
-75.7169
201.369
-77.2411
226.696
-77.0248
251.268
-72.8865
274.356
-69.797
295.95
-66.5631
318.206
-66.5905
341.25
-68.6735
364.142
-66.8209
386.178
-64.273
406.492
-61.5884
425.635
-58.887
443.31
-54.0648
458.452
-46.989
472.873
-45.7429
487.745
-45.541
502.845
-45.0223
517.352
-45.4298
531.761
-45.179
547.688
-44.7713
562.828
-41.7814
574.697
-36.2812
584.167
-30.1999
593.42
-30.0613
602.002
-29.1984
610.613
-26.6588
618.667
-22.2807
623.255
-15.4684
627.136
-14.4482
631.399
-13.5073
635.817
-13.59
641.08
-14.1216
645.136
-10.5349
646.79
-6.60583
646.596
-1.33862
646.838
-0.126961
647.275
0.4854
646.982
2.62823
647.425
1.08522
645.63
5.07363
641.38
9.87258
637.91
9.5893
635.159
9.89716
632.478
10.6415
628.93
12.5596
624.76
12.5521
619.784
14.991
613.319
17.9158
607.197
17.6907
601.41
18.2148
594.04
20.9537
586.987
21.0018
579.847
22.1719
570.785
25.6009
562.169
24.4199
554.788
23.285
548.073
22.7236
541.523
21.7898
533.525
24.7739
523.873
27.8184
514.726
26.9435
506.001
26.9003
497.08
25.1516
487.604
24.9007
480.224
21.2455
473.889
20.1965
465.223
26.3306
456.932
26.0424
450.262
22.3609
443.912
21.5011
437.2
22.3738
427.963
26.8648
416.496
30.9192
406.448
28.794
397.71
26.763
388.875
26.4738
380.712
24.4494
374.043
21.6839
367.158
22.6323
359.767
23.0109
351.783
22.8622
344.346
22.3492
337.81
20.9056
329.26
24.4286
319.653
26.708
311.578
23.4596
303.907
22.8127
296.884
21.0602
291.368
18.2855
285.916
18.8245
280.101
18.882
274.923
17.1855
269.343
17.6876
262.592
19.4885
254.502
22.7623
246.676
21.2854
240.638
17.403
235.366
15.169
229.752
15.4837
225.006
14.6843
221.211
13.5002
216.604
15.3097
210.236
18.1033
203.064
19.6874
196.465
20.0127
192.447
13.9109
188.863
11.3276
183.71
14.397
178.504
14.8178
174.002
13.1706
171.951
6.42005
170.751
4.3959
167.61
8.79317
162.711
13.0092
157.436
14.1318
152.942
13.2891
149.557
10.4966
147.348
8.38399
144.722
10.2074
141.344
11.6627
137.636
11.5672
132.515
14.3252
127.905
13.1491
126.03
7.55392
123.947
8.37575
120.329
11.1576
116.987
10.7294
113.758
9.36801
110.095
8.50166
108.268
4.93834
106.276
6.48908
102.669
10.1222
100.178
8.17298
99.03
6.11839
97.3517
7.21741
94.9144
7.52703
91.7035
8.34539
88.1412
8.4402
86.4253
5.15301
84.4449
5.75893
81.6029
7.66969
79.3661
7.31479
77.5525
5.22654
77.52
2.0861
77.602
2.30027
76.0033
4.48142
74.7314
2.82398
73.3426
3.17477
71.3086
5.32033
68.8713
6.44402
66.8165
5.56917
65.3174
3.42614
62.8218
6.31455
60.8592
6.53963
58.5952
7.2772
56.9123
5.99286
56.8425
4.00546
56.1467
5.16587
54.7675
4.87481
52.9217
4.58732
51.5173
2.24255
49.475
4.89966
48.0184
4.48881
47.8336
3.51664
46.1629
7.44555
44.6979
5.63357
44.6237
2.78714
45.2817
0.0674112
44.0822
2.91479
41.5737
6.29991
39.7657
4.04439
38.8722
0.0227889
39.7883
-3.24105
39.503
0.925278
37.7261
4.94214
36.1682
4.65105
34.9195
3.23931
33.5199
1.81812
32.5936
2.01273
34.0542
-0.513897
35.647
-1.11279
35.7396
1.71668
35.4811
2.30455
34.1496
3.93467
31.9992
5.26913
30.7965
2.77587
28.6906
4.34849
27.128
3.03053
26.978
-0.0951287
25.8025
2.68627
25.4228
2.00855
26.6544
-0.824429
27.1557
0.496367
25.5488
4.61815
24.0573
2.93548
23.2592
1.57885
21.6451
2.49369
20.9398
-0.196518
22.8755
-2.90559
24.3658
-1.09939
23.5592
2.71291
21.3503
5.33065
19.9139
3.91751
19.8688
1.68562
19.7289
-0.156484
20.2344
-3.23966
22.0878
-4.49177
23.2868
-1.99724
23.3238
1.44173
21.7998
4.8512
19.1472
6.5418
17.7936
3.93818
18.1239
0.786309
17.5876
1.58533
16.0017
2.64327
14.6998
3.6436
13.3401
3.93006
12.4251
1.45471
12.144
0.263399
13.5851
-4.17391
16.029
-5.57205
16.8655
-1.67572
15.8986
2.02816
14.2153
3.0217
12.4572
1.76556
12.1054
0.917502
14.1884
-2.53174
15.7261
-1.55769
14.6648
3.7899
12.6778
5.37583
11.1827
4.57095
9.93044
2.66299
9.18959
0.979758
9.03521
0.0962078
10.0975
-2.73326
10.4054
-0.667539
8.62585
4.02031
7.56075
1.62314
8.78795
-2.99892
12.3752
-6.69865
14.3469
-3.43248
12.7999
3.93782
10.6682
4.77449
9.9542
1.96028
11.1546
-0.424749
12.695
-2.32634
12.1912
1.14383
10.3237
3.36678
10.016
-1.47916
10.9846
-2.49895
11.4454
-0.21973
10.9452
1.43449
9.89443
2.89682
8.69807
2.67901
9.23405
-1.12741
10.154
-0.817691
9.1038
2.94852
7.38791
3.63251
7.17394
-0.0156378
7.58728
-1.98483
7.22759
0.938043
7.07541
0.103748
7.62787
-2.57986
8.43511
-3.21295
8.01574
-0.229135
6.80312
2.59138
7.07638
0.928443
7.35191
1.52628
6.13338
4.41148
5.77972
1.07775
5.286
0.993438
4.07433
2.14867
3.49889
-0.049025
4.74471
-4.47036
6.32547
-4.46617
6.43266
0.169491
6.78755
0.880983
7.17506
0.0734924
6.91036
0.0562208
5.83362
1.96285
5.14728
1.36149
6.76247
-3.66602
8.84162
-4.93972
9.13336
0.178458
9.89731
-1.15678
10.1765
-1.12371
7.9442
4.85862
6.11359
4.84769
6.3985
1.05277
6.38566
0.566429
5.47172
2.41728
5.05843
1.57279
4.89709
0.424352
4.64286
0.680876
4.64126
0.400197
3.80109
1.67696
3.17297
2.29378
3.78316
-1.82639
4.37118
-3.34825
5.03456
-2.19244
5.63319
-0.515689
5.55616
1.34579
4.86961
2.27486
4.44661
0.719135
3.85179
0.594612
3.61229
-1.10133
3.22381
0.340356
3.97683
-1.33689
5.45773
-3.04383
4.0849
3.82571
2.7749
3.95983
3.37878
-0.209146
5.25416
-3.68726
6.58045
-2.23298
6.72614
0.929318
5.53522
3.36449
4.00613
3.88509
4.09027
-0.436585
3.18759
1.24936
2.03053
3.14942
1.67618
1.45305
1.20412
0.687647
2.34843
-4.95292
5.4075
-9.39502
8.8188
-7.69789
9.55325
-2.17398
8.38596
1.63815
7.5009
2.15289
6.48983
2.91823
4.76453
4.79931
4.8683
1.02534
5.73126
-0.0122333
4.70798
4.55121
4.67551
1.59336
4.56367
1.32277
2.59925
4.10239
1.47725
1.93501
1.86022
-1.09802
4.13272
-5.7495
7.0516
-6.46639
6.96963
0.0892246
5.83499
1.37599
5.68261
-1.20755
5.07726
1.162
4.26696
2.5265
3.92822
1.57673
3.36898
2.00778
2.72385
2.03676
2.67824
-0.202692
1.77593
1.51015
0.274131
2.5864
0.984379
-2.28195
3.08915
-4.63536
4.48975
-3.25281
5.25471
-1.7797
5.24758
0.675528
5.64757
-1.05215
6.47525
-2.33178
6.58162
-0.48413
7.00301
-1.41596
6.99104
-0.216847
6.12722
2.44587
4.50384
4.19186
2.99043
3.39506
3.10821
0.0973231
5.6502
-5.61252
7.65237
-3.83535
7.29633
1.29641
6.89666
0.485492
6.37165
0.982407
5.71259
1.74446
5.12094
2.51231
4.63491
2.18561
4.51878
1.3365
5.88014
-1.34921
7.4437
-3.50314
8.56264
-1.70146
8.27998
1.62999
5.77629
4.10947
3.50116
4.15927
3.76529
0.626281
4.87642
-1.05938
4.69003
0.0395166
3.95597
0.536186
3.49107
0.385702
5.40869
-6.23224
7.02622
-5.86076
6.97855
-0.300414
7.4242
-0.930914
6.80899
1.66151
5.91754
2.36331
6.01809
0.975668
6.0419
1.26441
4.97112
3.35852
3.17008
4.93049
2.01536
3.08418
2.02425
0.160343
2.10385
-0.387193
1.00636
2.58702
0.498463
1.42956
1.30162
-1.48196
3.14564
-4.70494
4.99307
-6.06262
6.86225
-4.71145
8.48451
-3.00384
8.37002
0.592687
6.36879
4.39471
4.43514
4.74245
4.4087
2.22954
5.22298
-1.01416
5.18245
-1.03599
4.41129
0.550215
5.05876
-1.86784
5.82941
-1.57823
5.5613
-0.387796
4.44747
1.51934
3.43347
2.4379
3.24541
0.409761
2.93392
0.893597
2.59736
0.557627
3.25754
-1.37105
5.31602
-3.77321
5.93816
-1.06693
5.35472
2.35255
5.51414
0.1791
5.19708
0.632521
4.50216
1.59988
3.67596
2.23686
4.19726
-1.08657
4.99795
-1.90859
4.62853
0.67519
5.73068
-2.25724
6.82689
-1.9288
7.31394
-1.90615
7.75401
-1.31136
7.49501
0.225472
6.62556
0.985077
5.73557
1.84379
4.93641
1.09686
4.17204
0.77836
3.9129
-0.328417
4.83137
-2.70197
5.42829
-1.2559
4.14909
2.3917
2.67965
2.39039
2.12456
0.667421
3.05348
-2.13173
5.33466
-4.74658
7.00925
-3.82468
7.01525
-0.500084
7.38161
-0.664999
7.75313
0.216632
6.0647
4.29687
4.70695
3.35775
4.42901
0.652199
3.21846
2.87528
3.46525
0.148333
4.01605
-0.623492
3.56457
2.24848
3.6349
-0.062838
2.79066
0.0740618
1.71739
1.03332
1.9156
-1.2854
2.75785
-2.91644
4.5813
-5.81574
5.4582
-2.91925
4.99702
1.44729
5.87352
-1.86402
5.77862
1.33799
3.90482
5.71887
1.99193
5.17463
-0.680713
6.65387
-2.2374
4.32698
-1.84705
0.29434
-1.03086
-1.2942
1.88521
-5.30994
4.86344
-5.11663
5.60862
-2.10453
5.19268
-0.579636
3.29932
3.22944
1.25464
3.72057
-0.0151327
0.458043
-0.166621
-2.45209
0.218257
-1.0274
0.251979
-0.506616
1.44267
-4.07453
3.88358
-4.77527
5.23402
-1.20825
5.41907
0.54561
4.76181
2.84969
3.64635
3.6965
2.00346
4.3821
-0.619637
5.47099
-1.64507
1.30454
-1.38858
-1.5213
0.415665
-4.80143
3.24477
-4.89481
3.67597
0.29493
2.07082
3.55857
0.32809
5.24161
0.411794
0.829216
0.608235
-1.05852
-0.281864
1.13524
-1.54782
1.32119
-2.10529
0.00393512
-3.37582
26.6236
-110.69
51.6331
-101.411
76.2713
-97.6752
101.826
-99.6168
127.615
-99.6083
152.925
-99.2141
177.815
-100.964
202.313
-101.883
226.16
-100.752
250.325
-97.1255
274.153
-93.6892
297.195
-89.6257
320.561
-89.8911
343.001
-91.1284
364.5
-88.4411
385.502
-85.14
405.269
-80.94
423.639
-77.2238
441.201
-71.7316
457.71
-63.5494
473.669
-61.8591
489.347
-61.2938
504.373
-60.1399
518.811
-59.8765
532.9
-59.3166
547.462
-59.2882
561.152
-55.2602
573.107
-47.7854
583.554
-40.4698
592.447
-38.8632
600.033
-36.7434
607.734
-34.4157
615.722
-30.4645
621.715
-21.6386
626.64
-19.6524
631.522
-18.5896
635.353
-17.6669
639.339
-18.1729
642.349
-13.5313
643.281
-7.49045
643.66
-1.73968
644.651
-1.10762
645.473
-0.248484
645.443
2.77928
645.274
1.37065
643.366
7.10909
639.99
13.269
636.797
12.9933
634.116
12.9235
631.331
13.4918
627.077
16.7849
622.236
17.5694
617.041
20.2047
611.11
23.9536
604.896
23.924
598.496
24.5751
591.35
28.0845
584.238
28.0074
576.753
29.504
568.91
33.588
561.407
32.1374
553.732
31.0108
546.186
30.2683
538.57
29.5565
530.019
33.4018
521.11
36.8256
512.629
35.3757
503.928
35.657
495.155
34.0188
486.451
33.6927
478.154
29.5441
470.411
27.9483
462.568
34.2134
455.098
33.5174
447.797
29.7384
440.526
28.7788
433.184
29.7227
424.303
35.7573
414.275
41.0244
404.765
38.5456
395.706
35.8952
387.259
34.9638
379.398
32.3258
372.11
29.021
364.638
30.1901
357.077
30.7895
349.321
30.7155
342.151
29.631
334.971
28.1442
326.502
32.9599
317.804
35.3787
309.83
31.5559
302.799
29.8514
296.299
27.5845
289.93
24.9131
283.855
24.9573
277.79
24.9153
272.18
22.7226
266.756
23.0572
260.248
25.9173
252.892
29.9767
245.859
28.2779
239.796
23.4612
234.247
20.682
228.669
21.0148
223.548
19.8993
218.407
18.7147
213.796
19.978
208.36
23.4921
202.113
25.8703
197.152
24.9579
193.281
17.7131
188.309
16.315
182.848
19.7916
179.26
18.2514
175.102
17.2675
170.626
10.9413
166.861
8.26055
163.006
12.7582
159.317
16.6902
155.748
17.7522
151.961
16.9369
148.369
14.0498
145.384
11.3597
142.24
13.256
138.621
15.1953
134.705
15.5359
130.735
18.3723
127.492
16.6182
125.072
10.1342
122.505
10.9939
119.437
14.2448
116.497
13.6261
113.335
12.4798
109.648
12.2003
107.221
7.39338
105.191
8.50783
102.656
12.7988
100.242
10.7325
98.1172
8.1605
96.3205
8.8119
93.9615
9.94518
91.0993
11.1707
88.5741
11.0167
86.9271
6.78943
85.1294
7.58552
82.7876
10.2158
80.5574
9.65731
78.1786
7.78464
77.1326
3.31563
76.5738
2.93034
74.9478
6.18775
73.2679
4.58034
71.9315
4.48903
70.0636
7.16815
67.6982
8.79878
65.538
7.81359
63.2342
5.79262
60.7703
8.92048
59.1229
8.18984
57.84
8.60036
56.5865
7.28608
55.9792
4.64086
55.6978
5.56288
54.6322
5.91298
52.4594
6.66138
50.8149
3.86881
49.4228
6.37179
48.1437
5.83497
48.0991
3.61783
47.4309
8.14848
46.4521
6.61468
45.9773
3.137
45.4455
0.649563
44.1881
4.27892
43.0709
7.57865
41.7093
5.51485
39.3513
2.54242
37.6936
-1.50434
36.9764
1.70604
36.6289
5.39504
36.0206
5.56354
35.007
4.33788
33.6098
3.31047
32.3987
3.29235
33.1874
-1.26887
34.21
-1.96043
34.1393
1.85827
33.8695
2.8705
32.8451
5.03838
31.6517
6.47254
30.5712
3.70339
28.6688
6.23427
27.292
4.4055
26.7873
0.223056
26.099
3.40681
26.0703
2.10003
26.087
-0.991025
25.8498
0.761518
24.8803
5.65032
23.6058
4.27125
22.744
2.40095
21.6327
3.66283
20.7809
0.651671
21.6027
-3.72653
22.5243
-1.97046
22.5142
2.69861
21.9775
6.18871
21.8953
4.19608
21.8784
1.724
20.7278
0.993652
20.0992
-2.57969
20.7055
-5.03059
20.897
-2.2052
21.0685
1.12535
21.1774
4.70185
20.1338
7.50379
19.2122
4.75602
18.8311
1.04013
18.0071
2.25295
16.5204
3.71465
15.2939
4.75134
14.2172
4.90559
14.0291
1.58563
14.3101
0.00351293
13.9225
-3.7759
14.5346
-6.13502
15.4837
-2.48596
15.1375
2.48304
14.0494
4.29059
12.7298
3.14393