/*--------------------------------*- C++ -*----------------------------------*\
| =========                 |                                                 |
| \\      /  F ield         | OpenFOAM: The Open Source CFD Toolbox           |
|  \\    /   O peration     | Version:  v2012                                 |
|   \\  /    A nd           | Website:  www.openfoam.com                      |
|    \\/     M anipulation  |                                                 |
\*---------------------------------------------------------------------------*/
FoamFile
{
    version     2.0;
    format      ascii;
    class       volScalarField;
    location    "100";
    object      T;
}
// * * * * * * * * * * * * * * * * * * * * * * * * * * * * * * * * * * * * * //

dimensions      [0 0 0 1 0 0 0];


internalField   nonuniform List<scalar> 
65536
(
299.404
299.404
299.408
299.412
299.413
299.414
299.415
299.416
299.417
299.416
299.414
299.409
299.406
299.4
299.4
299.397
299.397
299.396
299.394
299.391
299.387
299.378
299.368
299.359
299.353
299.344
299.338
299.335
299.332
299.332
299.332
299.333
299.333
299.334
299.335
299.337
299.337
299.338
299.339
299.339
299.336
299.333
299.328
299.322
299.314
299.307
299.303
299.298
299.296
299.294
299.293
299.294
299.294
299.293
299.29
299.289
299.286
299.287
299.284
299.284
299.284
299.283
299.28
299.275
299.27
299.264
299.259
299.252
299.249
299.249
299.251
299.254
299.254
299.254
299.254
299.253
299.256
299.258
299.259
299.261
299.261
299.261
299.262
299.262
299.259
299.258
299.258
299.26
299.261
299.263
299.264
299.264
299.263
299.263
299.264
299.263
299.263
299.263
299.265
299.266
299.267
299.267
299.265
299.266
299.263
299.262
299.26
299.26
299.258
299.257
299.256
299.255
299.254
299.253
299.253
299.251
299.252
299.253
299.255
299.258
299.264
299.27
299.276
299.281
299.285
299.287
299.29
299.292
299.293
299.295
299.295
299.298
299.298
299.297
299.295
299.294
299.292
299.292
299.29
299.287
299.285
299.283
299.281
299.281
299.278
299.277
299.273
299.271
299.268
299.265
299.262
299.259
299.259
299.258
299.261
299.264
299.272
299.28
299.288
299.297
299.304
299.31
299.314
299.317
299.318
299.316
299.314
299.31
299.304
299.296
299.288
299.28
299.272
299.266
299.259
299.253
299.25
299.246
299.244
299.245
299.247
299.251
299.255
299.262
299.267
299.273
299.278
299.279
299.279
299.277
299.275
299.271
299.267
299.264
299.263
299.264
299.267
299.272
299.279
299.284
299.289
299.294
299.297
299.3
299.302
299.302
299.302
299.303
299.302
299.302
299.302
299.302
299.3
299.297
299.294
299.291
299.29
299.289
299.285
299.282
299.277
299.275
299.272
299.27
299.268
299.267
299.267
299.269
299.269
299.271
299.271
299.271
299.27
299.269
299.267
299.265
299.263
299.26
299.258
299.254
299.255
299.256
299.26
299.263
299.267
299.269
299.269
299.269
299.266
299.263
299.26
299.258
299.26
299.262
299.264
299.267
299.271
299.272
299.274
299.277
299.278
299.277
299.274
299.27
299.268
299.262
299.259
299.259
299.256
299.258
299.264
299.271
299.276
299.281
299.284
299.283
299.282
299.278
299.273
299.269
299.269
299.268
299.272
299.275
299.278
299.28
299.282
299.281
299.283
299.285
299.286
299.286
299.286
299.283
299.278
299.273
299.269
299.264
299.26
299.256
299.252
299.247
299.243
299.238
299.235
299.236
299.237
299.241
299.247
299.25
299.253
299.253
299.252
299.251
299.251
299.25
299.25
299.251
299.251
299.252
299.253
299.255
299.255
299.255
299.255
299.253
299.25
299.248
299.246
299.246
299.246
299.25
299.257
299.263
299.267
299.269
299.269
299.269
299.27
299.27
299.27
299.271
299.272
299.272
299.271
299.269
299.266
299.264
299.262
299.26
299.258
299.256
299.253
299.249
299.248
299.247
299.248
299.248
299.248
299.251
299.255
299.259
299.262
299.263
299.265
299.266
299.267
299.267
299.269
299.269
299.269
299.269
299.269
299.271
299.273
299.275
299.275
299.275
299.274
299.272
299.27
299.267
299.263
299.26
299.256
299.253
299.251
299.247
299.247
299.245
299.243
299.241
299.24
299.238
299.24
299.243
299.251
299.257
299.262
299.267
299.267
299.266
299.263
299.261
299.258
299.256
299.254
299.256
299.257
299.259
299.262
299.265
299.268
299.269
299.269
299.27
299.269
299.269
299.269
299.266
299.264
299.262
299.262
299.262
299.262
299.265
299.266
299.268
299.268
299.267
299.265
299.26
299.253
299.249
299.243
299.24
299.235
299.232
299.231
299.23
299.23
299.23
299.233
299.235
299.237
299.241
299.243
299.244
299.244
299.247
299.25
299.251
299.255
299.259
299.263
299.266
299.267
299.265
299.265
299.262
299.263
299.261
299.261
299.261
299.259
299.256
299.252
299.247
299.244
299.243
299.243
299.247
299.249
299.254
299.258
299.259
299.258
299.254
299.249
299.241
299.232
299.222
299.217
299.209
299.207
299.203
299.199
299.197
299.198
299.203
299.209
299.215
299.222
299.227
299.232
299.235
299.237
299.241
299.242
299.243
299.242
299.242
299.241
299.239
299.237
299.234
299.23
299.225
299.218
299.213
299.208
299.205
299.247
299.258
299.262
299.265
299.271
299.271
299.275
299.274
299.27
299.27
299.265
299.261
299.249
299.25
299.239
299.247
299.25
299.251
299.25
299.243
299.23
299.23
299.226
299.218
299.199
299.197
299.191
299.186
299.186
299.187
299.189
299.187
299.193
299.191
299.199
299.195
299.196
299.199
299.197
299.194
299.196
299.192
299.182
299.176
299.168
299.161
299.149
299.149
299.149
299.151
299.153
299.153
299.154
299.153
299.152
299.146
299.143
299.131
299.139
299.14
299.14
299.141
299.139
299.138
299.129
299.118
299.102
299.099
299.095
299.102
299.104
299.106
299.108
299.109
299.104
299.103
299.104
299.109
299.113
299.108
299.115
299.118
299.118
299.115
299.115
299.11
299.113
299.115
299.121
299.123
299.121
299.12
299.12
299.12
299.116
299.121
299.121
299.12
299.121
299.126
299.126
299.126
299.123
299.114
299.118
299.116
299.116
299.112
299.114
299.117
299.117
299.116
299.112
299.109
299.101
299.107
299.106
299.109
299.113
299.118
299.118
299.124
299.132
299.136
299.142
299.145
299.145
299.144
299.146
299.144
299.149
299.149
299.153
299.155
299.151
299.142
299.147
299.143
299.144
299.145
299.144
299.14
299.141
299.134
299.137
299.134
299.134
299.129
299.125
299.119
299.119
299.118
299.109
299.114
299.115
299.123
299.121
299.133
299.146
299.156
299.167
299.17
299.173
299.178
299.174
299.178
299.175
299.168
299.159
299.151
299.146
299.139
299.135
299.121
299.116
299.11
299.097
299.103
299.105
299.105
299.103
299.1
299.113
299.113
299.127
299.132
299.136
299.138
299.141
299.138
299.134
299.133
299.125
299.116
299.11
299.117
299.128
299.136
299.138
299.14
299.14
299.138
299.147
299.155
299.158
299.16
299.16
299.153
299.157
299.156
299.16
299.159
299.156
299.154
299.152
299.152
299.147
299.142
299.142
299.135
299.137
299.128
299.123
299.117
299.121
299.124
299.12
299.116
299.125
299.127
299.13
299.131
299.132
299.126
299.125
299.122
299.117
299.113
299.103
299.106
299.103
299.111
299.117
299.123
299.125
299.129
299.129
299.124
299.122
299.12
299.117
299.116
299.116
299.12
299.123
299.126
299.125
299.132
299.132
299.131
299.129
299.129
299.129
299.124
299.111
299.115
299.113
299.101
299.107
299.109
299.116
299.126
299.135
299.14
299.142
299.143
299.137
299.131
299.127
299.122
299.112
299.124
299.128
299.134
299.139
299.141
299.138
299.142
299.142
299.144
299.149
299.15
299.146
299.143
299.138
299.136
299.124
299.122
299.114
299.112
299.105
299.107
299.099
299.093
299.092
299.085
299.093
299.1
299.106
299.113
299.114
299.118
299.111
299.107
299.1
299.107
299.11
299.107
299.113
299.111
299.112
299.11
299.112
299.111
299.113
299.111
299.111
299.102
299.096
299.088
299.098
299.108
299.11
299.115
299.123
299.126
299.129
299.129
299.127
299.127
299.129
299.129
299.127
299.131
299.127
299.126
299.127
299.119
299.117
299.117
299.116
299.113
299.107
299.101
299.093
299.1
299.099
299.107
299.111
299.108
299.11
299.113
299.114
299.119
299.119
299.123
299.125
299.13
299.126
299.128
299.129
299.129
299.129
299.13
299.133
299.134
299.138
299.136
299.136
299.132
299.128
299.128
299.126
299.12
299.115
299.106
299.098
299.106
299.106
299.106
299.105
299.1
299.094
299.093
299.089
299.101
299.105
299.115
299.124
299.122
299.126
299.122
299.121
299.11
299.111
299.114
299.114
299.105
299.109
299.116
299.121
299.122
299.123
299.128
299.13
299.127
299.129
299.128
299.122
299.124
299.122
299.114
299.109
299.112
299.119
299.118
299.118
299.119
299.123
299.123
299.118
299.117
299.115
299.102
299.095
299.085
299.089
299.092
299.094
299.092
299.088
299.088
299.09
299.093
299.1
299.1
299.102
299.103
299.103
299.1
299.096
299.106
299.111
299.119
299.12
299.121
299.122
299.126
299.122
299.122
299.111
299.119
299.12
299.12
299.117
299.113
299.107
299.107
299.102
299.093
299.098
299.101
299.11
299.111
299.114
299.117
299.113
299.113
299.104
299.095
299.084
299.076
299.06
299.063
299.05
299.052
299.053
299.052
299.051
299.057
299.065
299.073
299.078
299.083
299.086
299.088
299.09
299.084
299.092
299.096
299.1
299.099
299.099
299.1
299.095
299.093
299.087
299.082
299.081
299.07
299.061
299.049
298.957
298.959
298.969
298.971
298.966
298.967
298.96
298.962
298.975
298.979
298.976
298.961
298.955
298.94
298.944
298.947
298.954
298.963
298.965
298.959
298.954
298.94
298.929
298.916
298.915
298.9
298.898
298.896
298.897
298.896
298.899
298.902
298.894
298.902
298.892
298.901
298.902
298.901
298.908
298.916
298.909
298.906
298.903
298.888
298.877
298.864
298.858
298.857
298.856
298.858
298.862
298.864
298.866
298.863
298.855
298.855
298.842
298.845
298.845
298.853
298.857
298.857
298.856
298.842
298.839
298.832
298.825
298.808
298.796
298.797
298.814
298.821
298.821
298.812
298.807
298.792
298.808
298.814
298.812
298.819
298.818
298.826
298.832
298.836
298.822
298.815
298.82
298.83
298.831
298.834
298.84
298.834
298.829
298.824
298.83
298.825
298.824
298.824
298.829
298.829
298.838
298.835
298.832
298.831
298.827
298.827
298.823
298.822
298.824
298.825
298.822
298.821
298.821
298.819
298.819
298.819
298.825
298.826
298.817
298.823
298.834
298.842
298.843
298.847
298.847
298.849
298.852
298.855
298.849
298.856
298.857
298.868
298.869
298.865
298.86
298.859
298.853
298.862
298.859
298.85
298.843
298.843
298.841
298.851
298.85
298.854
298.843
298.839
298.835
298.837
298.831
298.823
298.822
298.824
298.832
298.822
298.83
298.846
298.863
298.877
298.877
298.886
298.894
298.892
298.899
298.894
298.885
298.883
298.874
298.863
298.849
298.841
298.83
298.839
298.826
298.815
298.813
298.8
298.801
298.798
298.805
298.813
298.806
298.827
298.828
298.843
298.848
298.855
298.849
298.85
298.848
298.834
298.831
298.827
298.812
298.817
298.82
298.826
298.843
298.85
298.852
298.856
298.861
298.867
298.87
298.865
298.857
298.86
298.857
298.866
298.868
298.872
298.873
298.863
298.854
298.846
298.853
298.858
298.852
298.85
298.834
298.835
298.826
298.815
298.825
298.828
298.832
298.832
298.832
298.843
298.85
298.843
298.836
298.837
298.835
298.836
298.836
298.826
298.824
298.816
298.814
298.819
298.826
298.836
298.846
298.847
298.847
298.844
298.833
298.822
298.816
298.813
298.816
298.822
298.833
298.836
298.841
298.833
298.841
298.842
298.848
298.848
298.84
298.831
298.824
298.816
298.812
298.813
298.8
298.792
298.815
298.831
298.847
298.857
298.861
298.857
298.856
298.847
298.829
298.815
298.817
298.821
298.842
298.852
298.854
298.852
298.852
298.846
298.85
298.856
298.857
298.86
298.864
298.857
298.851
298.834
298.838
298.826
298.827
298.823
298.824
298.806
298.81
298.805
298.795
298.8
298.797
298.807
298.817
298.824
298.829
298.818
298.827
298.819
298.819
298.813
298.814
298.822
298.817
298.824
298.829
298.83
298.825
298.832
298.823
298.82
298.807
298.809
298.797
298.794
298.797
298.802
298.822
298.836
298.84
298.841
298.835
298.835
298.837
298.834
298.835
298.837
298.842
298.828
298.837
298.837
298.821
298.825
298.824
298.825
298.826
298.824
298.819
298.806
298.8
298.8
298.807
298.798
298.793
298.806
298.813
298.82
298.829
298.833
298.838
298.834
298.837
298.834
298.845
298.842
298.845
298.844
298.843
298.847
298.85
298.85
298.849
298.853
298.851
298.851
298.849
298.844
298.84
298.834
298.826
298.818
298.812
298.804
298.811
298.815
298.814
298.816
298.808
298.798
298.796
298.795
298.815
298.824
298.824
298.84
298.836
298.835
298.819
298.823
298.821
298.815
298.812
298.823
298.827
298.83
298.835
298.84
298.844
298.842
298.841
298.842
298.833
298.829
298.838
298.833
298.827
298.824
298.816
298.82
298.82
298.825
298.827
298.836
298.837
298.835
298.835
298.824
298.809
298.814
298.804
298.791
298.793
298.794
298.794
298.798
298.801
298.799
298.8
298.809
298.806
298.812
298.814
298.81
298.804
298.802
298.814
298.816
298.828
298.831
298.838
298.838
298.839
298.833
298.829
298.814
298.821
298.822
298.837
298.837
298.837
298.831
298.824
298.809
298.8
298.804
298.801
298.81
298.812
298.827
298.834
298.836
298.841
298.83
298.825
298.81
298.793
298.777
298.774
298.76
298.769
298.768
298.76
298.755
298.762
298.769
298.779
298.787
298.793
298.801
298.805
298.806
298.802
298.808
298.806
298.811
298.809
298.808
298.806
298.798
298.804
298.802
298.797
298.793
298.777
298.776
298.768
298.769
298.524
298.559
298.573
298.578
298.582
298.576
298.573
298.578
298.579
298.575
298.568
298.559
298.524
298.53
298.49
298.543
298.566
298.571
298.569
298.554
298.514
298.543
298.549
298.534
298.482
298.503
298.507
298.505
298.505
298.511
298.514
298.506
298.505
298.501
298.51
298.503
298.492
298.516
298.527
298.524
298.531
298.521
298.504
298.494
298.471
298.466
298.422
298.46
298.469
298.468
298.46
298.482
298.487
298.484
298.47
298.458
298.45
298.409
298.451
298.468
298.476
298.479
298.475
298.477
298.462
298.439
298.394
298.397
298.361
298.412
298.425
298.43
298.428
298.417
298.402
298.349
298.404
298.426
298.43
298.396
298.428
298.434
298.448
298.448
298.443
298.398
298.436
298.448
298.457
298.46
298.45
298.446
298.428
298.437
298.438
298.441
298.432
298.421
298.435
298.452
298.453
298.461
298.45
298.407
298.443
298.449
298.447
298.433
298.44
298.445
298.445
298.436
298.444
298.436
298.394
298.433
298.438
298.437
298.439
298.432
298.432
298.437
298.455
298.459
298.46
298.452
298.46
298.454
298.455
298.446
298.447
298.46
298.478
298.484
298.468
298.429
298.46
298.463
298.466
298.456
298.442
298.449
298.447
298.448
298.458
298.456
298.465
298.454
298.443
298.444
298.45
298.442
298.399
298.433
298.437
298.441
298.403
298.448
298.477
298.489
298.507
298.506
298.506
298.514
298.501
298.507
298.514
298.505
298.487
298.465
298.465
298.457
298.453
298.44
298.444
298.43
298.385
298.417
298.423
298.427
298.415
298.396
298.42
298.421
298.444
298.459
298.477
298.474
298.482
298.476
298.47
298.464
298.452
298.423
298.367
298.419
298.439
298.452
298.463
298.467
298.453
298.419
298.457
298.478
298.483
298.482
298.472
298.46
298.46
298.466
298.485
298.491
298.483
298.471
298.45
298.463
298.467
298.464
298.465
298.451
298.448
298.443
298.428
298.379
298.435
298.453
298.437
298.408
298.451
298.466
298.466
298.472
298.469
298.453
298.436
298.44
298.434
298.427
298.394
298.412
298.386
298.43
298.451
298.455
298.459
298.464
298.459
298.452
298.446
298.437
298.429
298.421
298.427
298.445
298.452
298.456
298.456
298.464
298.46
298.462
298.447
298.46
298.465
298.445
298.391
298.425
298.423
298.38
298.402
298.353
298.419
298.444
298.461
298.474
298.475
298.479
298.467
298.454
298.446
298.429
298.378
298.435
298.454
298.471
298.48
298.481
298.469
298.462
298.462
298.471
298.485
298.492
298.485
298.482
298.461
298.452
298.442
298.436
298.408
298.427
298.423
298.433
298.42
298.41
298.399
298.382
298.404
298.412
298.44
298.455
298.452
298.453
298.43
298.42
298.396
298.427
298.441
298.432
298.429
298.433
298.432
298.433
298.442
298.435
298.44
298.429
298.419
298.407
298.396
298.36
298.39
298.408
298.429
298.441
298.453
298.457
298.457
298.456
298.458
298.463
298.459
298.462
298.451
298.45
298.447
298.434
298.443
298.429
298.412
298.428
298.439
298.442
298.431
298.405
298.361
298.404
298.409
298.418
298.411
298.394
298.418
298.429
298.436
298.445
298.444
298.454
298.459
298.466
298.464
298.473
298.465
298.46
298.451
298.458
298.466
298.474
298.482
298.481
298.473
298.474
298.467
298.464
298.459
298.456
298.449
298.426
298.381
298.429
298.447
298.45
298.447
298.432
298.42
298.401
298.361
298.396
298.418
298.435
298.444
298.447
298.458
298.448
298.44
298.399
298.428
298.44
298.432
298.401
298.425
298.443
298.449
298.451
298.45
298.451
298.448
298.451
298.455
298.458
298.447
298.453
298.451
298.425
298.381
298.412
298.431
298.424
298.414
298.426
298.441
298.443
298.437
298.437
298.43
298.413
298.397
298.354
298.397
298.41
298.422
298.417
298.4
298.384
298.405
298.41
298.427
298.431
298.428
298.419
298.405
298.405
298.382
298.42
298.433
298.449
298.455
298.454
298.452
298.458
298.445
298.434
298.39
298.436
298.443
298.453
298.447
298.441
298.433
298.431
298.416
298.381
298.412
298.416
298.422
298.43
298.441
298.449
298.444
298.451
298.433
298.413
298.393
298.369
298.343
298.366
298.338
298.363
298.371
298.357
298.345
298.369
298.391
298.4
298.408
298.413
298.417
298.414
298.407
298.377
298.402
298.413
298.424
298.426
298.422
298.426
298.425
298.422
298.416
298.409
298.408
298.398
298.384
298.338
298.018
298.085
298.109
298.109
298.079
298.078
298.035
298.051
298.091
298.111
298.11
298.077
298.007
298.034
297.993
298.061
298.09
298.118
298.126
298.097
298.025
298.078
298.084
298.061
297.991
298.022
298.035
298.028
298.038
298.037
298.049
298.046
298.002
298.04
298.007
298.039
297.981
298.026
298.058
298.069
298.07
298.068
298.058
298.031
297.98
298.007
297.962
298.008
297.997
298.014
297.973
298.023
298.041
298.024
297.974
297.999
297.969
297.926
297.996
298.01
298.007
298.027
298.03
298
298.01
297.994
297.92
297.955
297.902
297.936
297.975
297.981
297.974
297.926
297.955
297.906
297.964
297.969
297.964
297.928
297.968
297.956
298.003
298.018
298.001
297.956
297.991
298.006
298.003
298.014
298.017
297.995
297.941
297.971
297.969
297.971
297.956
297.915
297.971
297.984
298.011
298.01
297.998
297.942
297.989
297.984
297.973
297.941
297.981
297.989
297.974
297.939
297.979
297.99
297.936
297.987
297.99
297.982
297.951
297.957
297.973
297.988
297.989
297.983
297.986
297.95
297.993
297.995
297.956
297.971
297.944
298.005
298.036
298.037
298.016
297.951
297.999
298.014
298.011
297.994
297.935
297.966
297.945
297.996
298.008
298.016
297.996
297.983
297.945
297.976
297.998
297.987
297.94
297.994
298.005
297.982
297.939
298.003
298.033
298.055
298.045
298.047
298.058
298.048
298.057
298.058
298.053
298.051
298.03
297.972
297.99
297.976
297.946
297.992
297.991
297.97
297.904
297.932
297.942
297.929
297.952
297.908
297.922
297.961
297.947
297.997
298.014
298.027
298.009
298.026
298.021
297.973
297.996
297.982
297.908
297.956
297.938
297.944
297.995
298.008
297.993
297.939
298.003
298.028
298.029
298.007
297.976
297.949
297.948
297.995
298.024
298.04
298.036
298.004
297.936
297.955
297.995
298.014
298.006
297.986
297.933
297.98
297.979
297.928
297.991
298
297.995
297.943
297.996
298.017
298.027
298.009
297.976
297.985
297.949
297.988
297.994
297.974
297.928
297.98
297.939
297.987
297.99
298.008
298.02
298.025
298.023
298.008
297.981
297.94
297.94
297.914
297.923
297.973
298
298.007
297.998
297.97
297.994
297.99
297.968
298
298.006
297.987
297.922
297.962
297.966
297.91
297.95
297.915
297.972
297.968
298.014
298.03
298.036
298.026
298.02
297.997
297.962
297.93
297.893
297.956
298.013
298.035
298.035
298.019
297.997
297.962
297.984
298.012
298.027
298.036
298.046
298.03
298.012
297.945
297.982
297.963
297.905
297.962
297.974
297.936
297.962
297.963
297.943
297.905
297.933
297.923
297.984
298.004
298.008
297.964
297.989
297.964
297.893
297.956
297.975
297.981
297.936
297.976
297.988
297.987
297.974
297.97
297.976
297.973
297.915
297.948
297.93
297.885
297.923
297.903
297.968
297.987
298.005
298.004
297.982
297.969
297.985
297.988
297.993
297.993
297.991
297.946
297.975
297.981
297.934
297.952
297.912
297.971
297.995
298
297.984
297.928
297.891
297.952
297.957
297.909
297.885
297.87
297.937
297.957
297.964
297.98
297.99
297.98
297.983
297.971
298.004
298.014
298.022
298.008
297.971
298.011
298.026
298.03
298.03
298.034
298.035
298.018
298.008
298.012
298.015
298.014
297.994
297.96
297.902
297.948
297.979
297.995
297.994
297.985
297.965
297.951
297.882
297.9
297.969
297.985
297.947
298.003
298.013
298.006
297.956
297.927
297.982
297.98
297.956
297.91
297.967
297.993
298.003
298.003
298
298.005
297.997
297.996
297.985
297.963
297.992
297.999
297.99
297.975
297.915
297.962
297.968
297.961
297.908
297.967
297.99
297.988
297.982
297.969
297.921
297.957
297.952
297.898
297.947
297.925
297.954
297.963
297.95
297.883
297.94
297.964
297.954
297.974
297.981
297.961
297.906
297.928
297.887
297.961
297.992
298.002
297.993
297.98
297.988
297.989
297.984
297.933
297.905
297.977
298.011
298.012
298.008
297.993
297.978
297.969
297.953
297.905
297.948
297.958
297.924
297.966
297.983
297.997
298.006
297.996
297.987
297.961
297.921
297.866
297.848
297.897
297.866
297.926
297.924
297.882
297.875
297.93
297.952
297.958
297.942
297.965
297.967
297.953
297.935
297.883
297.922
297.956
297.953
297.964
297.961
297.925
297.955
297.954
297.933
297.937
297.91
297.936
297.93
297.869
297.558
297.585
297.602
297.576
297.523
297.551
297.484
297.488
297.561
297.565
297.577
297.569
297.513
297.562
297.585
297.576
297.578
297.611
297.613
297.572
297.608
297.571
297.584
297.598
297.58
297.516
297.548
297.531
297.535
297.513
297.538
297.524
297.478
297.511
297.486
297.541
297.495
297.508
297.561
297.526
297.563
297.542
297.523
297.519
297.502
297.558
297.582
297.562
297.524
297.536
297.504
297.549
297.555
297.534
297.465
297.477
297.453
297.513
297.525
297.524
297.476
297.529
297.528
297.482
297.516
297.51
297.525
297.495
297.501
297.447
297.466
297.449
297.468
297.433
297.49
297.519
297.48
297.447
297.5
297.505
297.512
297.487
297.525
297.527
297.538
297.536
297.532
297.519
297.493
297.516
297.495
297.507
297.463
297.46
297.437
297.476
297.431
297.401
297.465
297.457
297.486
297.517
297.528
297.539
297.525
297.476
297.489
297.444
297.479
297.485
297.483
297.429
297.504
297.536
297.552
297.529
297.473
297.475
297.414
297.404
297.407
297.42
297.461
297.426
297.48
297.453
297.498
297.481
297.434
297.439
297.43
297.46
297.521
297.535
297.52
297.525
297.509
297.478
297.503
297.478
297.437
297.476
297.428
297.461
297.491
297.479
297.498
297.478
297.431
297.442
297.512
297.53
297.528
297.51
297.488
297.506
297.514
297.495
297.532
297.539
297.544
297.504
297.528
297.532
297.492
297.51
297.548
297.554
297.536
297.486
297.496
297.444
297.407
297.455
297.502
297.512
297.498
297.436
297.432
297.424
297.485
297.475
297.415
297.427
297.418
297.493
297.525
297.532
297.497
297.532
297.525
297.464
297.51
297.486
297.526
297.49
297.428
297.426
297.507
297.517
297.485
297.517
297.492
297.522
297.519
297.493
297.425
297.383
297.405
297.45
297.517
297.541
297.537
297.512
297.43
297.408
297.479
297.479
297.482
297.427
297.396
297.474
297.485
297.532
297.529
297.526
297.496
297.516
297.527
297.53
297.525
297.519
297.451
297.492
297.466
297.486
297.462
297.461
297.532
297.541
297.553
297.528
297.498
297.506
297.499
297.511
297.504
297.482
297.474
297.421
297.449
297.406
297.418
297.473
297.492
297.475
297.479
297.436
297.484
297.507
297.509
297.531
297.533
297.528
297.514
297.477
297.509
297.526
297.531
297.546
297.522
297.482
297.507
297.525
297.51
297.516
297.504
297.479
297.439
297.431
297.488
297.455
297.514
297.541
297.546
297.534
297.498
297.431
297.441
297.499
297.524
297.535
297.539
297.531
297.477
297.41
297.455
297.463
297.431
297.469
297.431
297.394
297.446
297.44
297.445
297.44
297.468
297.446
297.506
297.522
297.503
297.434
297.454
297.457
297.407
297.474
297.496
297.464
297.426
297.466
297.445
297.435
297.443
297.42
297.471
297.458
297.394
297.418
297.434
297.419
297.436
297.399
297.458
297.44
297.489
297.49
297.445
297.422
297.477
297.482
297.473
297.495
297.477
297.419
297.463
297.436
297.391
297.454
297.423
297.45
297.47
297.506
297.509
297.476
297.505
297.47
297.435
297.378
297.363
297.381
297.44
297.417
297.414
297.463
297.454
297.446
297.48
297.441
297.505
297.517
297.504
297.506
297.479
297.505
297.492
297.501
297.524
297.53
297.512
297.509
297.472
297.502
297.492
297.506
297.501
297.456
297.501
297.456
297.495
297.487
297.502
297.497
297.442
297.471
297.464
297.401
297.466
297.482
297.427
297.465
297.513
297.504
297.456
297.508
297.517
297.51
297.461
297.482
297.445
297.482
297.481
297.482
297.443
297.465
297.435
297.458
297.469
297.418
297.449
297.491
297.504
297.484
297.482
297.438
297.446
297.436
297.396
297.42
297.461
297.436
297.422
297.45
297.384
297.42
297.456
297.49
297.479
297.439
297.469
297.451
297.42
297.39
297.441
297.424
297.41
297.464
297.468
297.443
297.406
297.447
297.474
297.471
297.459
297.484
297.485
297.428
297.436
297.484
297.476
297.416
297.488
297.507
297.481
297.494
297.479
297.45
297.425
297.465
297.468
297.48
297.472
297.451
297.403
297.451
297.445
297.479
297.456
297.489
297.47
297.418
297.384
297.384
297.444
297.471
297.474
297.436
297.451
297.409
297.4
297.448
297.468
297.467
297.446
297.46
297.456
297.418
297.453
297.432
297.385
297.433
297.409
297.45
297.441
297.395
297.455
297.442
297.379
297.411
297.369
297.449
297.476
297.48
297.002
297.046
297.049
297.017
297.039
297.014
297.045
297.047
297.011
296.972
297.013
297.017
296.977
297.009
297.062
297.022
297.046
297.089
297.106
297.052
297.109
297.044
297.016
297.048
297.078
297.022
297.04
297.001
297.018
297.006
297.019
296.986
297.037
297.016
297.078
297.093
297.108
297.075
297.037
296.984
297.007
296.955
296.936
296.952
297.023
297.059
297.09
297.077
297.072
297.066
297.054
297.026
297.034
297
297.018
296.959
296.97
297.028
297.004
296.992
296.96
297.01
297.025
297.019
297.013
296.986
297.031
296.99
297.021
296.989
296.953
296.935
296.954
297.001
296.988
296.973
296.97
296.911
296.958
297.018
297.018
297.021
297.019
296.998
297.033
297.037
297
296.983
297.016
297.018
296.965
297.016
297.006
296.968
296.929
296.959
296.967
296.91
296.972
296.981
296.947
296.964
296.984
297.049
297.032
296.983
296.965
296.947
296.964
296.936
296.936
296.909
296.971
297.038
297.072
297.031
296.969
296.974
296.934
296.885
296.859
296.854
296.919
296.886
296.966
297.007
296.996
296.956
296.97
296.94
296.973
296.936
297.004
297.009
296.962
297.003
296.954
296.932
296.977
296.981
296.996
296.963
296.967
296.928
296.946
296.907
296.926
296.918
296.968
296.937
296.998
296.998
297.027
296.999
296.94
296.946
296.998
296.954
296.98
297
296.968
296.956
296.99
296.942
296.889
296.913
296.976
297.017
297.019
297.015
296.994
296.964
296.973
296.915
296.961
296.985
297.026
296.993
297.018
297.043
297.028
297.026
296.993
296.921
296.926
296.96
296.963
297.01
297.032
297.037
297.04
297.04
297.007
296.948
296.973
296.988
296.973
296.999
296.992
296.998
296.965
297
296.959
296.991
296.979
296.934
296.936
296.892
296.933
296.92
296.991
297.014
297.009
296.983
296.973
296.913
296.949
296.921
296.948
296.891
296.976
296.961
296.962
297.02
297.018
296.984
296.952
297.003
296.993
296.97
296.995
296.989
297.007
297.003
296.988
296.966
296.948
296.971
297.062
297.081
297.083
297.044
297.006
296.978
296.935
296.966
296.952
296.912
296.943
296.913
296.923
296.929
296.974
296.944
296.978
296.92
296.949
296.977
296.933
296.946
296.992
296.958
296.963
296.985
297.026
296.988
296.998
297.037
297.011
297
297.032
297.027
296.978
296.993
296.95
296.955
296.971
296.937
296.951
296.995
297.022
296.982
297.026
297.024
297.017
296.974
296.928
296.912
296.917
296.954
296.963
296.964
296.999
296.991
296.937
296.984
296.926
296.929
296.988
296.976
296.907
296.915
296.934
296.885
296.898
296.946
296.954
296.997
297.004
296.98
297.013
297.001
296.935
296.955
296.904
296.954
296.952
296.931
296.971
296.938
296.878
296.853
296.856
296.873
296.929
296.954
296.949
296.883
296.905
296.919
296.947
296.98
296.958
296.898
296.962
296.975
296.946
296.904
296.947
296.925
296.951
296.952
296.962
296.943
296.927
296.902
296.976
296.964
296.968
296.918
296.928
297.001
297.031
297.032
297.02
296.943
296.922
296.977
296.979
296.974
296.925
296.897
296.886
296.928
296.907
296.933
296.946
296.987
296.971
296.962
296.949
296.989
297.007
297.003
296.94
296.951
296.98
296.991
296.958
296.97
296.935
296.977
296.964
296.993
296.965
296.961
297.023
297.013
296.953
296.919
296.954
296.967
296.938
296.99
296.983
296.916
296.971
296.996
297.015
296.952
297.007
297.01
297.004
297.034
297.011
296.978
296.98
296.978
296.908
296.955
296.926
296.924
296.895
296.932
296.871
296.898
296.927
296.919
296.889
296.953
296.955
296.943
296.964
296.889
296.889
296.915
296.95
296.902
296.948
296.898
296.868
296.933
296.971
296.914
296.935
297.007
297.001
296.967
296.92
296.886
296.882
296.931
296.907
296.874
296.89
296.941
296.947
296.894
296.924
296.907
296.919
296.93
296.904
296.948
296.945
296.912
296.903
296.93
296.966
296.927
296.996
296.983
296.925
296.945
296.938
296.865
296.857
296.913
296.907
296.959
296.931
296.938
296.898
296.926
296.916
296.949
296.893
296.946
296.943
296.883
296.875
296.942
296.977
296.96
296.991
296.93
296.966
296.953
296.922
296.962
296.955
296.965
296.928
296.945
296.926
296.879
296.928
296.942
296.883
296.927
296.883
296.918
296.905
296.962
296.918
296.901
296.844
296.888
296.854
296.917
296.976
297.019
296.429
296.511
296.512
296.467
296.481
296.448
296.504
296.486
296.433
296.391
296.403
296.474
296.481
296.453
296.515
296.461
296.507
296.55
296.539
296.601
296.598
296.549
296.481
296.483
296.552
296.558
296.527
296.449
296.497
296.47
296.468
296.47
296.543
296.561
296.577
296.546
296.534
296.548
296.496
296.524
296.496
296.409
296.397
296.411
296.508
296.544
296.577
296.563
296.549
296.533
296.533
296.469
296.489
296.459
296.515
296.487
296.52
296.528
296.463
296.448
296.447
296.487
296.47
296.459
296.492
296.485
296.533
296.542
296.538
296.518
296.518
296.507
296.469
296.49
296.439
296.391
296.398
296.368
296.398
296.477
296.472
296.521
296.509
296.474
296.498
296.511
296.454
296.442
296.5
296.504
296.487
296.523
296.527
296.465
296.489
296.435
296.467
296.424
296.484
296.503
296.465
296.444
296.451
296.523
296.523
296.496
296.452
296.474
296.438
296.425
296.403
296.404