/*--------------------------------*- C++ -*----------------------------------*\
| =========                 |                                                 |
| \\      /  F ield         | OpenFOAM: The Open Source CFD Toolbox           |
|  \\    /   O peration     | Version:  v2012                                 |
|   \\  /    A nd           | Website:  www.openfoam.com                      |
|    \\/     M anipulation  |                                                 |
\*---------------------------------------------------------------------------*/
FoamFile
{
    version     2.0;
    format      ascii;
    class       volScalarField;
    location    "100";
    object      theta;
}
// * * * * * * * * * * * * * * * * * * * * * * * * * * * * * * * * * * * * * //

dimensions      [0 0 0 1 0 0 0];


internalField   nonuniform List<scalar> 
65536
(
-0.350701
-0.350253
-0.346706
-0.34322
-0.342104
-0.340662
-0.339972
-0.338405
-0.337687
-0.33904
-0.341062
-0.345566
-0.348711
-0.354468
-0.354565
-0.357605
-0.357639
-0.358288
-0.360329
-0.363535
-0.367982
-0.377181
-0.386483
-0.395496
-0.401922
-0.410484
-0.416429
-0.419294
-0.422293
-0.423017
-0.423196
-0.42173
-0.422168
-0.420266
-0.420174
-0.418166
-0.417887
-0.41717
-0.415949
-0.415605
-0.418471
-0.422038
-0.42637
-0.433049
-0.44102
-0.447859
-0.452236
-0.456645
-0.458902
-0.460734
-0.461462
-0.460742
-0.460932
-0.461895
-0.464414
-0.466081
-0.468295
-0.467547
-0.470469
-0.47073
-0.470685
-0.472056
-0.474553
-0.479563
-0.484695
-0.491021
-0.495704
-0.502258
-0.505367
-0.506124
-0.503763
-0.501244
-0.500349
-0.501159
-0.501063
-0.501439
-0.498827
-0.496636
-0.495963
-0.49387
-0.493981
-0.493596
-0.492691
-0.492715
-0.495381
-0.496786
-0.49653
-0.494773
-0.493662
-0.491978
-0.490722
-0.490636
-0.491875
-0.491886
-0.491183
-0.49198
-0.492103
-0.491829
-0.490199
-0.489214
-0.488141
-0.48821
-0.489283
-0.488916
-0.49199
-0.49301
-0.495006
-0.495126
-0.496404
-0.497577
-0.498583
-0.499828
-0.500561
-0.502098
-0.501903
-0.504105
-0.503171
-0.502101
-0.499551
-0.496516
-0.490386
-0.484518
-0.478635
-0.473316
-0.469925
-0.467635
-0.464667
-0.462578
-0.461876
-0.459901
-0.459502
-0.456903
-0.456596
-0.457994
-0.459993
-0.460348
-0.463152
-0.463186
-0.464556
-0.467288
-0.470104
-0.471623
-0.474167
-0.474135
-0.476436
-0.47821
-0.481264
-0.483939
-0.487095
-0.489299
-0.492848
-0.495957
-0.495936
-0.496501
-0.493901
-0.49064
-0.482997
-0.475235
-0.466781
-0.458021
-0.450977
-0.444328
-0.440254
-0.438171
-0.436334
-0.438279
-0.440622
-0.445129
-0.451186
-0.459031
-0.467004
-0.474497
-0.482888
-0.488462
-0.495507
-0.501645
-0.504488
-0.508825
-0.510603
-0.509863
-0.507827
-0.503687
-0.500191
-0.492264
-0.487691
-0.481782
-0.477199
-0.475631
-0.476055
-0.477253
-0.479658
-0.484153
-0.487557
-0.490976
-0.491947
-0.490571
-0.487426
-0.48231
-0.475782
-0.470637
-0.466028
-0.461225
-0.457705
-0.454925
-0.452896
-0.452437
-0.452848
-0.451733
-0.453189
-0.452406
-0.452533
-0.452927
-0.454627
-0.457433
-0.461012
-0.463467
-0.464506
-0.465941
-0.469469
-0.472284
-0.477596
-0.479988
-0.483221
-0.484712
-0.487084
-0.487975
-0.487409
-0.486063
-0.486058
-0.484188
-0.483411
-0.48329
-0.484986
-0.485513
-0.487838
-0.489509
-0.492225
-0.495027
-0.496907
-0.500318
-0.499533
-0.498483
-0.494909
-0.491571
-0.48767
-0.485848
-0.485264
-0.485323
-0.488336
-0.492249
-0.495037
-0.4965
-0.494921
-0.492895
-0.490343
-0.487669
-0.484047
-0.482398
-0.480292
-0.477725
-0.476796
-0.477513
-0.480326
-0.484253
-0.486799
-0.492558
-0.49606
-0.495388
-0.49847
-0.496707
-0.490836
-0.48415
-0.478417
-0.47357
-0.470986
-0.471523
-0.472873
-0.476498
-0.481867
-0.485275
-0.485433
-0.486415
-0.483
-0.47925
-0.476359
-0.474326
-0.473011
-0.473584
-0.471812
-0.469982
-0.468938
-0.468474
-0.468896
-0.471816
-0.47637
-0.482041
-0.485546
-0.490886
-0.494921
-0.498738
-0.502266
-0.507797
-0.512244
-0.516358
-0.520002
-0.519207
-0.517889
-0.513835
-0.508045
-0.504341
-0.501518
-0.502031
-0.502321
-0.503504
-0.503371
-0.505095
-0.504814
-0.50363
-0.504164
-0.502279
-0.501519
-0.49976
-0.499401
-0.499623
-0.499932
-0.501513
-0.505201
-0.507116
-0.509068
-0.508667
-0.508821
-0.505189
-0.498187
-0.491821
-0.488213
-0.485988
-0.485251
-0.485686
-0.485178
-0.485151
-0.48508
-0.484019
-0.482527
-0.48239
-0.483301
-0.4858
-0.488821
-0.490287
-0.49265
-0.49469
-0.496844
-0.499028
-0.502198
-0.50555
-0.506485
-0.508127
-0.506767
-0.507225
-0.506414
-0.503374
-0.499355
-0.495905
-0.492806
-0.491432
-0.489301
-0.488536
-0.487721
-0.487599
-0.485687
-0.485426
-0.48577
-0.48603
-0.485405
-0.48358
-0.482187
-0.480167
-0.479873
-0.479553
-0.480872
-0.482294
-0.484436
-0.48799
-0.491613
-0.494729
-0.498542
-0.501637
-0.503783
-0.5074
-0.508144
-0.509404
-0.511441
-0.513633
-0.515088
-0.516425
-0.514287
-0.511309
-0.503589
-0.49748
-0.492887
-0.487894
-0.48744
-0.488515
-0.491461
-0.49333
-0.496551
-0.499137
-0.501066
-0.498863
-0.497859
-0.495804
-0.492629
-0.489267
-0.486721
-0.485693
-0.485533
-0.485112
-0.485694
-0.485975
-0.48607
-0.488633
-0.490949
-0.492277
-0.492668
-0.492605
-0.492319
-0.489939
-0.48839
-0.486766
-0.48664
-0.487774
-0.489718
-0.495223
-0.50167
-0.506243
-0.511907
-0.515166
-0.520079
-0.52309
-0.524141
-0.524955
-0.524883
-0.524757
-0.522203
-0.519914
-0.51747
-0.513725
-0.51143
-0.510685
-0.510425
-0.508162
-0.504611
-0.503373
-0.499367
-0.495993
-0.492186
-0.488966
-0.487816
-0.489259
-0.490076
-0.492556
-0.491538
-0.493268
-0.493441
-0.494091
-0.495752
-0.498877
-0.502632
-0.50769
-0.511191
-0.511719
-0.511252
-0.50822
-0.505467
-0.500525
-0.497149
-0.49608
-0.496298
-0.500313
-0.50586
-0.513787
-0.523094
-0.532752
-0.537773
-0.545489
-0.547484
-0.552008
-0.555478
-0.557895
-0.556598
-0.552129
-0.545958
-0.539436
-0.533047
-0.527415
-0.522962
-0.519792
-0.517603
-0.513521
-0.5129
-0.511849
-0.51233
-0.512254
-0.513437
-0.515571
-0.517526
-0.52076
-0.524475
-0.529703
-0.536569
-0.541832
-0.547221
-0.549449
-0.0176812
-0.00658328
-0.00250857
0.000672067
0.00702402
0.00712953
0.0102943
0.0099716
0.00608419
0.00594397
0.000856093
-0.00311359
-0.0151237
-0.0145522
-0.0256851
-0.0173284
-0.0146968
-0.0131237
-0.0142589
-0.0216579
-0.0347106
-0.0342928
-0.0381344
-0.0462952
-0.0655236
-0.0675854
-0.0729214
-0.0786541
-0.0779127
-0.0767756
-0.075367
-0.0770049
-0.0709213
-0.0733583
-0.0657205
-0.0697397
-0.0685621
-0.0657279
-0.0667968
-0.0705968
-0.0681052
-0.0727112
-0.0819672
-0.0882864
-0.095887
-0.103059
-0.1151
-0.115247
-0.115382
-0.112826
-0.111749
-0.111286
-0.110208
-0.111424
-0.111948
-0.118456
-0.120969
-0.133501
-0.125446
-0.124039
-0.12396
-0.122877
-0.12559
-0.126396
-0.135625
-0.145791
-0.161834
-0.165176
-0.168871
-0.161791
-0.160426
-0.158461
-0.156701
-0.155339
-0.160334
-0.161425
-0.160228
-0.155265
-0.151542
-0.156646
-0.149397
-0.146394
-0.145858
-0.149635
-0.149408
-0.153974
-0.151355
-0.14905
-0.143217
-0.141511
-0.143496
-0.14409
-0.143989
-0.144412
-0.14816
-0.143634
-0.143644
-0.143781
-0.142892
-0.138345
-0.138714
-0.138039
-0.140862
-0.150731
-0.145766
-0.14831
-0.148169
-0.152129
-0.150213
-0.147747
-0.146911
-0.148508
-0.151757
-0.155088
-0.163728
-0.156854
-0.157759
-0.155291
-0.150787
-0.146516
-0.146336
-0.13984
-0.132312
-0.127858
-0.121922
-0.11881
-0.118815
-0.119956
-0.11801
-0.12019
-0.114807
-0.115223
-0.111158
-0.109551
-0.113372
-0.122605
-0.116808
-0.121047
-0.120305
-0.119001
-0.120377
-0.124384
-0.123236
-0.130002
-0.12738
-0.130504
-0.129883
-0.134828
-0.139599
-0.145307
-0.145321
-0.146466
-0.155174
-0.149996
-0.148861
-0.141178
-0.142974
-0.131257
-0.118562
-0.108543
-0.0972392
-0.0947146
-0.0914736
-0.0867461
-0.0898964
-0.0866529
-0.0891935
-0.0960526
-0.105013
-0.112914
-0.117936
-0.125689
-0.129582
-0.143694
-0.147766
-0.154156
-0.167542
-0.161651
-0.159656
-0.158965
-0.160809
-0.164166
-0.15158
-0.151377
-0.136923
-0.13226
-0.128368
-0.126149
-0.123246
-0.125751
-0.130367
-0.131085
-0.139563
-0.148523
-0.15393
-0.146923
-0.136188
-0.128069
-0.12674
-0.124189
-0.124417
-0.125954
-0.117066
-0.109385
-0.10613
-0.104326
-0.104475
-0.111194
-0.1073
-0.10789
-0.104335
-0.105265
-0.108083
-0.110133
-0.112423
-0.112401
-0.116914
-0.121811
-0.122625
-0.129049
-0.126876
-0.135762
-0.140898
-0.147677
-0.143246
-0.139835
-0.144087
-0.147912
-0.139198
-0.136918
-0.134586
-0.133136
-0.131876
-0.137756
-0.139216
-0.142609
-0.147144
-0.151664
-0.161252
-0.158548
-0.161529
-0.153636
-0.14773
-0.141233
-0.139611
-0.135466
-0.135155
-0.140542
-0.142658
-0.144696
-0.147108
-0.147884
-0.148653
-0.144482
-0.140887
-0.137863
-0.139565
-0.132511
-0.132328
-0.133475
-0.13506
-0.135628
-0.135073
-0.140118
-0.152931
-0.149443
-0.151176
-0.16373
-0.156917
-0.155601
-0.148614
-0.138703
-0.129512
-0.124631
-0.122609
-0.121148
-0.127537
-0.133732
-0.136887
-0.142629
-0.151845
-0.140147
-0.136
-0.130514
-0.125347
-0.123573
-0.126413
-0.122463
-0.12273
-0.120258
-0.115475
-0.114576
-0.11868
-0.121404
-0.126105
-0.127992
-0.140238
-0.142443
-0.150397
-0.152715
-0.15886
-0.1571
-0.16532
-0.171446
-0.171886
-0.179417
-0.171256
-0.164527
-0.158229
-0.151166
-0.150457
-0.145953
-0.153142
-0.156868
-0.164476
-0.157611
-0.154738
-0.157015
-0.151573
-0.153589
-0.15251
-0.154343
-0.151812
-0.152841
-0.151525
-0.15369
-0.153087
-0.162668
-0.168455
-0.175911
-0.166021
-0.156505
-0.153784
-0.14918
-0.141531
-0.13793
-0.134934
-0.135157
-0.137713
-0.137189
-0.135732
-0.135702
-0.137437
-0.133344
-0.13754
-0.138482
-0.137006
-0.144789
-0.147304
-0.14716
-0.14781
-0.151551
-0.157299
-0.163198
-0.171099
-0.164104
-0.164862
-0.15755
-0.153696
-0.156644
-0.154452
-0.151049
-0.150337
-0.145268
-0.145292
-0.141123
-0.139293
-0.134218
-0.138158
-0.135818
-0.135304
-0.135256
-0.135219
-0.134518
-0.131274
-0.129769
-0.126185
-0.128142
-0.127874
-0.132536
-0.136395
-0.136448
-0.1385
-0.14384
-0.149307
-0.158389
-0.166731
-0.157787
-0.157882
-0.157939
-0.159432
-0.164513
-0.170066
-0.171027
-0.175023
-0.163445
-0.159468
-0.149238
-0.139916
-0.142531
-0.137877
-0.141761
-0.143537
-0.154485
-0.152848
-0.150068
-0.150111
-0.159631
-0.155237
-0.14818
-0.143522
-0.142017
-0.140804
-0.136647
-0.134244
-0.137051
-0.135055
-0.136528
-0.141871
-0.140044
-0.141966
-0.149872
-0.155569
-0.152611
-0.145531
-0.146258
-0.146164
-0.14521
-0.141596
-0.14077
-0.14674
-0.147057
-0.148832
-0.162293
-0.16947
-0.17941
-0.17555
-0.171811
-0.17055
-0.171883
-0.176248
-0.175807
-0.174559
-0.171661
-0.164586
-0.163835
-0.162631
-0.161105
-0.161124
-0.163825
-0.168508
-0.157904
-0.153504
-0.145448
-0.143958
-0.142782
-0.142108
-0.137962
-0.142076
-0.141783
-0.153176
-0.14528
-0.144659
-0.144187
-0.14743
-0.151523
-0.15687
-0.157659
-0.162251
-0.171086
-0.166075
-0.16285
-0.154204
-0.153601
-0.150666
-0.14682
-0.150882
-0.151733
-0.160585
-0.169563
-0.180498
-0.18874
-0.204021
-0.201584
-0.213772
-0.212103
-0.211271
-0.212025
-0.213746
-0.207432
-0.199541
-0.191395
-0.185984
-0.181135
-0.177757
-0.176151
-0.174436
-0.180036
-0.172547
-0.168403
-0.163793
-0.164983
-0.16542
-0.164169
-0.169017
-0.171145
-0.176751
-0.182646
-0.183672
-0.194575
-0.202848
-0.214924
0.183491
0.184762
0.195279
0.197702
0.191825
0.193138
0.185908
0.188512
0.201444
0.204822
0.201994
0.187296
0.181154
0.166739
0.170582
0.173251
0.18035
0.189083
0.190945
0.185366
0.180535
0.166505
0.155277
0.142501
0.141164
0.126426
0.124379
0.122421
0.123422
0.122431
0.125632
0.127973
0.119999
0.128505
0.118268
0.127581
0.128315
0.12762
0.134541
0.142181
0.134933
0.132447
0.129495
0.114661
0.103556
0.0905069
0.0838185
0.0828849
0.0824871
0.0846096
0.0878189
0.0904997
0.0924239
0.0889437
0.0807969
0.0809205
0.06831
0.0712345
0.070899
0.0792323
0.0834903
0.0833829
0.0817506
0.0680815
0.0649671
0.0580137
0.0515642
0.0338857
0.0219023
0.0230029
0.0397666
0.0470481
0.0474059
0.0384811
0.0331923
0.0181642
0.034436
0.0401456
0.0384609
0.0447811
0.0439554
0.0520847
0.058456
0.0620058
0.0483236
0.0409891
0.0462186
0.0560846
0.057372
0.0604828
0.066174
0.0605052
0.0551703
0.0506888
0.0566856
0.0513072
0.0499164
0.0500765
0.0550011
0.0550502
0.0642663
0.0614722
0.0581161
0.0573404
0.0529462
0.0535729
0.0487588
0.0481871
0.0499938
0.0513702
0.048685
0.0470582
0.046917
0.0452747
0.0449422
0.0450705
0.0516228
0.05217
0.0435534
0.0493129
0.0607047
0.0683645
0.0687546
0.072975
0.0735928
0.0750953
0.0780501
0.0813703
0.0750472
0.0817872
0.0829964
0.0945336
0.0956846
0.0911821
0.0862437
0.085032
0.0794663
0.0886847
0.0850277
0.0764058
0.0691575
0.0689729
0.0667991
0.0772984
0.0760895
0.0798361
0.069748
0.0654145
0.0617484
0.063195
0.0577392
0.0487695
0.0485723
0.0505664
0.0577816
0.0482903
0.0563315
0.0723054
0.089731
0.103221
0.103155
0.112664
0.120193
0.118416
0.125569
0.119892
0.111503
0.108815
0.100541
0.0889005
0.0756071
0.0672725
0.0560018
0.0648633
0.0525786
0.04102
0.0391121
0.026224
0.0270258
0.0240191
0.0311901
0.0387888
0.0324956
0.0533742
0.0543021
0.0690395
0.0742863
0.0815917
0.075084
0.0762752
0.0737668
0.0599656
0.0575148
0.0528746
0.0378823
0.0433606
0.0458118
0.0524056
0.0694068
0.0763436
0.0787408
0.0826715
0.0871456
0.0935246
0.096382
0.0907733
0.0837143
0.0861242
0.0832734
0.0918381
0.094218
0.0987293
0.0992119
0.0888309
0.0801489
0.0727073
0.0787504
0.0839268
0.0787482
0.0762896
0.0602981
0.0614957
0.0520461
0.0414431
0.0515958
0.0537791
0.0579796
0.0579088
0.0586209
0.0694741
0.0758889
0.0696284
0.062191
0.0632348
0.060982
0.0618605
0.0624826
0.0522236
0.0498784
0.0419887
0.0398517
0.0455761
0.0518679
0.0622635
0.0723735
0.0734911
0.0733672
0.0701695
0.0591507
0.0477925
0.0422979
0.0396293
0.042118
0.0484919
0.058786
0.0623173
0.0672694
0.0591803
0.0673145
0.0683251
0.074212
0.0746768
0.0657799
0.0572613
0.0499089
0.0423568
0.0386204
0.0394641
0.0260232
0.0184552
0.0414675
0.0575047
0.0731667
0.0828672
0.0872976
0.0835089
0.0822703
0.0730416
0.0549323
0.0415837
0.0431614
0.0476468
0.0682301
0.0782905
0.080731
0.0783984
0.0787425
0.0719891
0.0766281
0.0824143
0.0832116
0.0858986
0.0903279
0.0836488
0.0775181
0.0601365
0.0638268
0.0520663
0.053465
0.0491847
0.0504801
0.032164
0.0364765
0.0316005
0.0212398
0.0259417
0.0236618
0.0334086
0.0435466
0.0504723
0.0554589
0.0446628
0.0532595
0.0455147
0.0453074
0.0394123
0.0406466
0.0485294
0.0434223
0.0499212
0.0548194
0.0565735
0.0514666
0.0581815
0.0494436
0.0458337
0.033089
0.0350089
0.0236911
0.020542
0.0228414
0.0280281
0.0479803
0.061984
0.0666276
0.0677456
0.0616267
0.0616385
0.0631641
0.0600566
0.0617205
0.0636573
0.0678163
0.0542694
0.0628502
0.0637462
0.0474415
0.0514012
0.0499306
0.0507758
0.0521435
0.0506217
0.0447597
0.0324641
0.0265838
0.025814
0.033468
0.023847
0.0197257
0.0324221
0.038911
0.0463873
0.0554566
0.0589519
0.0646491
0.0605826
0.0629252
0.0599551
0.0707548
0.0681635
0.0711632
0.0701846
0.0691719
0.0735605
0.0765592
0.0763281
0.0749213
0.078816
0.0777355
0.0771822
0.075381
0.0699309
0.0658768
0.0603274
0.0521
0.0443771
0.038177
0.03005
0.0375701
0.0409275
0.0404541
0.042478
0.0347418
0.0242641
0.0220813
0.0215899
0.0414531
0.05004
0.0507479
0.0663868
0.0622886
0.0614642
0.0449476
0.049099
0.0473628
0.0415416
0.0380022
0.0494923
0.0531269
0.0563519
0.0609093
0.0667215
0.0705227
0.0682298
0.066995
0.0677665
0.0596065
0.0556153
0.0642494
0.0596774
0.0529084
0.0497775
0.0423177
0.0464486
0.0457734
0.0508521
0.0535084
0.0623505
0.0629279
0.0610681
0.0613287
0.0498079
0.0350648
0.0402568
0.0299189
0.0171156
0.0193016
0.0198386
0.0202543
0.0242231
0.0273371
0.0249041
0.0261689
0.0353655
0.0322425
0.0378906
0.0405471
0.0359552
0.0298505
0.0284349
0.0401789
0.0424405
0.0546439
0.0570861
0.0641226
0.0640097
0.0655302
0.0588459
0.0557217
0.0399276
0.0471132
0.0485221
0.0628125
0.0630477
0.0628069
0.0574356
0.0506272
0.0356543
0.0261146
0.0301824
0.0272766
0.0363994
0.0385265
0.0530646
0.0606608
0.0622102
0.0670971
0.0558178
0.0509916
0.036318
0.0197455
0.00298166
0.000128269
-0.0134864
-0.00467104
-0.00596906
-0.013485
-0.0185047
-0.0118619
-0.00522138
0.00565148
0.0136236
0.0188976
0.0268357
0.0316961
0.0322063
0.0277569
0.0343016
0.0320224
0.0373647
0.0349692
0.0343961
0.0319357
0.0239438
0.0306381
0.0278892
0.0233844
0.0188585
0.00364475
0.00249981
-0.00589866
-0.00502078
0.240962
0.275671
0.290085
0.295195
0.29903
0.292821
0.289805
0.29485
0.295785
0.291793
0.284866
0.275714
0.240542
0.247168
0.206913
0.259577
0.282511
0.287476
0.28572
0.271085
0.231079
0.260187
0.265287
0.250789
0.198424
0.220202
0.223544
0.222237
0.221698
0.228121
0.230581
0.223227
0.221438
0.217318
0.22705
0.21958
0.208483
0.233094
0.244058
0.241065
0.247368
0.237972
0.22093
0.210434
0.187347
0.182489
0.138882
0.176792
0.186022
0.184981
0.177021
0.198754
0.203592
0.200566
0.186474
0.174731
0.167107
0.125728
0.167266
0.185146
0.192891
0.196188
0.19129
0.194104
0.179098
0.155684
0.110898
0.11402
0.07812
0.128515
0.14132
0.146983
0.144707
0.134033
0.118686
0.0660288
0.12081
0.142831
0.146633
0.112385
0.144863
0.150965
0.164876
0.164303
0.159571
0.114747
0.152701
0.164696
0.174035
0.177059
0.166828
0.162617
0.145074
0.153437
0.154375
0.158138
0.148993
0.138214
0.15168
0.168458
0.169556
0.177481
0.166282
0.123731
0.159401
0.165502
0.163582
0.149422
0.15663
0.161694
0.161892
0.152701
0.160989
0.152908
0.110281
0.149834
0.154896
0.153571
0.155779
0.149139
0.149068
0.154184
0.171929
0.175988
0.17685
0.168932
0.177232
0.170792
0.171291
0.162422
0.163545
0.176496
0.195106
0.200353
0.185247
0.145931
0.176826
0.17989
0.182681
0.173183
0.158724
0.165471
0.163712
0.165104
0.175155
0.172331
0.181639
0.171175
0.159592
0.161103
0.166895
0.158776
0.116006
0.149578
0.15417
0.157603
0.119445
0.164776
0.193454
0.205281
0.223936
0.222573
0.222556
0.23062
0.218137
0.223438
0.230691
0.221466
0.203955
0.181422
0.182179
0.173599
0.169588
0.156553
0.160676
0.147082
0.102026
0.13341
0.140234
0.143868
0.131378
0.112469
0.136366
0.137267
0.160374
0.175539
0.193866
0.190677
0.198461
0.192844
0.186491
0.180552
0.169016
0.139856
0.0839314
0.135414
0.155888
0.168573
0.180094
0.183471
0.169428
0.135657
0.173964
0.194294
0.199562
0.198414
0.188547
0.176521
0.177077
0.183129
0.201852
0.207279
0.200028
0.187571
0.166379
0.179536
0.183464
0.180615
0.181945
0.168151
0.164665
0.159514
0.144529
0.0955942
0.151932
0.16984
0.154041
0.124642
0.167941
0.182262
0.182648
0.188765
0.185483
0.169441
0.152253
0.156319
0.151189
0.144236
0.11058
0.128456
0.10232
0.146638
0.167339
0.172163
0.17612
0.180555
0.17585
0.168698
0.162771
0.153437
0.145501
0.137685
0.14354
0.161473
0.168451
0.172623
0.172831
0.180641
0.176367
0.178705
0.163567
0.176665
0.181618
0.161842
0.108178
0.141505
0.139621
0.0966891
0.118585
0.0697289
0.135436
0.161006
0.177706
0.190284
0.19216
0.1957
0.183373
0.171119
0.162939
0.145552
0.0947198
0.151799
0.170961
0.18756
0.196791
0.197589
0.185955
0.17842
0.178289
0.187874
0.201852
0.208432
0.201708
0.198668
0.178132
0.169164
0.158326
0.152905
0.124414
0.14342
0.1398
0.149329
0.136472
0.126611
0.115528
0.0989034
0.120927
0.128662
0.156279
0.172001
0.168356
0.169544
0.146759
0.136678
0.112305
0.144234
0.158235
0.148476
0.145633
0.149343
0.14896
0.149954
0.159052
0.151878
0.157246
0.145842
0.135444
0.123768
0.113094
0.0769032
0.106848
0.124812
0.146095
0.158072
0.169811
0.173573
0.173765
0.173204
0.175022
0.180149
0.176101
0.178502
0.167636
0.167071
0.163426
0.150638
0.159614
0.145573
0.128933
0.144354
0.155268
0.158788
0.147605
0.122089
0.0779668
0.120754
0.125796
0.134532
0.127282
0.11049
0.134619
0.145359
0.153097
0.161835
0.160518
0.170777
0.175295
0.182728
0.181109
0.189753
0.18127
0.176516
0.167676
0.174741
0.182261
0.1908
0.19918
0.197475
0.190061
0.190889
0.18329
0.181059
0.17594
0.172905
0.166204
0.1432
0.0980385
0.145309
0.16335
0.166992
0.164053
0.14875
0.136924
0.117309
0.0778635
0.112948
0.134596
0.151739
0.160383
0.163336
0.174806
0.16457
0.15627
0.115441
0.144964
0.156391
0.148749
0.118092
0.141679
0.15954
0.166096
0.16803
0.166806
0.167847
0.164636
0.167863
0.171985
0.175036
0.163938
0.169409
0.1681
0.141969
0.0975119
0.129152
0.147573
0.141152
0.131206
0.142981
0.157951
0.159579
0.153707
0.153524
0.146812
0.129813
0.113907
0.0709355
0.113365
0.126752
0.138969
0.133571
0.116381
0.100583
0.12193
0.126914
0.143295
0.147488
0.144553
0.135993
0.121855
0.122058
0.098354
0.136261
0.149479
0.165297
0.171775
0.170968
0.168723
0.174309
0.161675
0.150493
0.106902
0.152451
0.159753
0.169612
0.164199
0.157859
0.149855
0.148093
0.132614
0.0979699
0.128458
0.132835
0.1384
0.147145
0.157406
0.1659
0.160257
0.167803
0.149806
0.129679
0.109851
0.0861461
0.0597764
0.0823149
0.0543326
0.0795617
0.0881871
0.0738237
0.0615582
0.0857371
0.108219
0.116813
0.124423
0.129392
0.133502
0.130421
0.124131
0.0933754
0.119055
0.129461
0.140633
0.142781
0.139246
0.14305
0.141736
0.138875
0.132709
0.125255
0.124976
0.115019
0.100361
0.0545949
0.224951
0.291905
0.316056
0.316372
0.286727
0.284893
0.241921
0.257946
0.298368
0.318326
0.317277
0.284008
0.213946
0.241505
0.200663
0.267867
0.296976
0.325695
0.333748
0.303822
0.232056
0.284899
0.290923
0.268422
0.198085
0.228803
0.242089
0.234881
0.244851
0.244003
0.256194
0.253011
0.209196
0.247065
0.214526
0.246358
0.18859
0.233698
0.265711
0.276593
0.277635
0.275559
0.265128
0.238366
0.187694
0.214239
0.169114
0.215434
0.204563
0.221606
0.180312
0.230358
0.248186
0.230958
0.181733
0.205987
0.176708
0.133512
0.203337
0.217665
0.214008
0.233881
0.236842
0.207697
0.217268
0.200785
0.126832
0.162542
0.109621
0.142808
0.181865
0.188221
0.181622
0.133393
0.161934
0.113339
0.170952
0.176088
0.171567
0.13513
0.174925
0.16373
0.20996
0.225658
0.208334
0.163471
0.197861
0.212887
0.210237
0.221266
0.224298
0.202439
0.14855
0.177796
0.176671
0.178244
0.163284
0.122735
0.178114
0.191393
0.218045
0.217208
0.205239
0.14937
0.196035
0.191136
0.180031
0.148101
0.18801
0.196031
0.181279
0.145817
0.186609
0.196836
0.143234
0.193981
0.197022
0.189056
0.15855
0.164393
0.180016
0.195233
0.196739
0.190113
0.193729
0.157033
0.200224
0.201888
0.163638
0.178127
0.15125
0.21221
0.242822
0.243895
0.222991
0.158366
0.206428
0.221497
0.218706
0.201613
0.141932
0.173258
0.151984
0.20314
0.215247
0.222859
0.202926
0.190703
0.151917
0.183575
0.205043
0.194494
0.147457
0.201138
0.212143
0.189575
0.14659
0.210411
0.239783
0.261813
0.252459
0.25467
0.265367
0.255588
0.264623
0.264805
0.260403
0.257785
0.237578
0.179131
0.197278
0.183319
0.153478
0.199618
0.19845
0.177374
0.11115
0.138813
0.14912
0.136312
0.159628
0.115622
0.129679
0.168069
0.154215
0.204035
0.221474
0.234015
0.216103
0.233093
0.227963
0.180059
0.202823
0.189204
0.115154
0.163066
0.144942
0.150865
0.20195
0.215434
0.200565
0.146025
0.210021
0.234861
0.236674
0.213885
0.183294
0.156359
0.154794
0.201968
0.231217
0.247555
0.243609
0.211098
0.142935
0.16232
0.202328
0.221053
0.213228
0.192916
0.139886
0.187394
0.186158
0.135143
0.197809
0.206994
0.202199
0.150098
0.203062
0.223888
0.234627
0.21606
0.1832
0.192615
0.155756
0.195115
0.200795
0.180889
0.135216
0.1874
0.145851
0.194231
0.197473
0.21503
0.227746
0.232436
0.230627
0.215643
0.188245
0.14754
0.147083
0.121644
0.130611
0.180244
0.207167
0.214641
0.20519
0.176948
0.201531
0.197515
0.175124
0.207116
0.212794
0.194281
0.129424
0.169566
0.172953
0.116813
0.157625
0.122596
0.179254
0.175089
0.221519
0.237097
0.243704
0.233504
0.22763
0.204404
0.169176
0.136997
0.10051
0.163625
0.219796
0.241929
0.24233
0.22649
0.203774
0.169038
0.1911
0.219377
0.234122
0.243475
0.253045
0.237738
0.219212
0.152095
0.189124
0.170508
0.112275
0.169199
0.180822
0.142964
0.168866
0.17065
0.150715
0.112078
0.14067
0.13045
0.191524
0.211606
0.215388
0.171279
0.196032
0.171383
0.100458
0.163495
0.18264
0.188311
0.143101
0.183426
0.1957
0.194241
0.181114
0.176901
0.182922
0.179873
0.122607
0.155341
0.137642
0.0926223
0.130623
0.110143
0.174827
0.194079
0.212104
0.210884
0.189658
0.175856
0.19207
0.19561
0.20074
0.20033
0.19857
0.152976
0.181831
0.188399
0.141285
0.15936
0.118874
0.178252
0.202668
0.207009
0.191009
0.13482
0.0982832
0.159537
0.164141
0.116722
0.0926765
0.07741
0.143789
0.164647
0.171683
0.187141
0.197322
0.186802
0.189924
0.178082
0.211494
0.220857
0.228768
0.215572
0.177989
0.218127
0.233492
0.237746
0.23764
0.241368
0.242535
0.225461
0.215089
0.219537
0.222153
0.221541
0.20098
0.167637
0.109584
0.15541
0.186191
0.20222
0.20098
0.192633
0.172524
0.158555
0.0890262
0.106867
0.176192
0.192324
0.154149
0.21023
0.220522
0.213232
0.162816
0.133864
0.188914
0.187729
0.163128
0.117326
0.173836
0.19981
0.210388
0.210241
0.207441
0.211895
0.204429
0.202868
0.191802
0.169877
0.198956
0.205914
0.19686
0.182532
0.122555
0.169157
0.174971
0.168438
0.114799
0.174587
0.197022
0.195552
0.189571
0.176686
0.128211
0.16458
0.159525
0.104851
0.154078
0.132385
0.161651
0.170382
0.15717
0.0902475
0.146946
0.171221
0.161106
0.181418
0.18874
0.168326
0.113043
0.13534
0.0940371
0.168235
0.199587
0.209651
0.200412
0.187112
0.194876
0.195891
0.191375
0.140692
0.112594
0.184383
0.218413
0.2196
0.215582
0.200544
0.185118
0.176092
0.160414
0.112422
0.154842
0.165147
0.131436
0.173546
0.189805
0.204543
0.21276
0.202921
0.194161
0.167946
0.1281
0.0729525
0.055722
0.104271
0.0728294
0.133437
0.130943
0.0893012
0.0826288
0.137578
0.159357
0.165153
0.148788
0.172051
0.174056
0.159799
0.142385
0.0907069
0.129099
0.162764
0.160046
0.171652
0.168368
0.13223
0.162348
0.16158
0.140508
0.143812
0.117165
0.14278
0.136772
0.0762018
0.255997
0.282607
0.299806
0.273485
0.221019
0.248566
0.181841
0.185806
0.258333
0.262835
0.274749
0.267163
0.211028
0.259276
0.282662
0.273412
0.275776
0.309037
0.311142
0.26982
0.306106
0.268975
0.282209
0.295936
0.277584
0.213734
0.246022
0.228534
0.232715
0.21062
0.235559
0.221364
0.175967
0.209073
0.184006
0.238498
0.192816
0.205992
0.258938
0.223758
0.261153
0.240133
0.220343
0.216745
0.199892
0.256053
0.279912
0.260207
0.221438
0.234217
0.201678
0.246484
0.252592
0.231518
0.162997
0.175098
0.150312
0.211173
0.222627
0.221537
0.173993
0.227041
0.226191
0.179716
0.214011
0.207997
0.222994
0.192399
0.198653
0.144459
0.163369
0.146832
0.166184
0.131224
0.188176
0.216351
0.17777
0.144668
0.197565
0.20243
0.209828
0.184553
0.22302
0.22485
0.235967
0.233887
0.229957
0.216741
0.190738
0.214199
0.192473
0.205008
0.161175
0.157685
0.135121
0.173918
0.129046
0.0992388
0.162586
0.155146
0.18384
0.214656
0.225942
0.237138
0.222325
0.173367
0.187113
0.141722
0.177015
0.182673
0.180855
0.127116
0.20156
0.233458
0.249885
0.226445
0.171206
0.172358
0.11144
0.102167
0.104901
0.118127
0.159247
0.123881
0.17772
0.150564
0.19561
0.1787
0.131529
0.136673
0.127497
0.157902
0.219239
0.233229
0.217854
0.222897
0.206734
0.175782
0.200518
0.175604
0.134785
0.173747
0.126219
0.159031
0.189037
0.176609
0.196232
0.175419
0.128973
0.13963
0.209613
0.228107
0.226137
0.208127
0.18576
0.203637
0.211984
0.192763
0.229287
0.236486
0.241386
0.202124
0.225471
0.229852
0.189467
0.207494
0.246108
0.252139
0.233558
0.184061
0.194009
0.141791
0.104894
0.152877
0.199584
0.210133
0.195529
0.133327
0.130121
0.121338
0.183209
0.172393
0.112691
0.124298
0.116248
0.190705
0.222762
0.229468
0.19524
0.23022
0.222853
0.161738
0.208035
0.183416
0.223696
0.188208
0.126111
0.123366
0.204581
0.214581
0.183138
0.214587
0.18981
0.219708
0.216985
0.190482
0.122631
0.0805898
0.102767
0.147403
0.214915
0.238477
0.234892
0.209863
0.127474
0.10607
0.176896
0.17716
0.179943
0.124615
0.0939268
0.171623
0.183026
0.229303
0.226365
0.223837
0.193431
0.213407
0.224559
0.227942
0.222387
0.217202
0.149013
0.189771
0.163715
0.183457
0.159302
0.158974
0.230036
0.238893
0.250394
0.225895
0.195323
0.203668
0.197107
0.209241
0.201468
0.18013
0.17151
0.118386
0.146343
0.103706
0.115556
0.170262
0.190041
0.172758
0.176287
0.133678
0.181917
0.204794
0.207002
0.228643
0.230751
0.226214
0.211796
0.174421
0.207158
0.224206
0.22879
0.244063
0.219947
0.179958
0.205205
0.222478
0.207929
0.213873
0.201476
0.176282
0.136983
0.12916
0.185862
0.153038
0.212172
0.238324
0.244111
0.231526
0.195513
0.129105
0.138963
0.19643
0.222173
0.233189
0.236911
0.228852
0.174487
0.107439
0.152409
0.160627
0.128612
0.16682
0.129117
0.0917269
0.143686
0.137976
0.142424
0.137474
0.165927
0.143382
0.203768
0.219326
0.20108
0.131584
0.151633
0.154367
0.104397
0.171799
0.193301
0.161659
0.123409
0.16328
0.142906
0.133174
0.140345
0.117668
0.169205
0.155287
0.0912853
0.115666
0.132042
0.117026
0.13328
0.0965511
0.15622
0.137983
0.186599
0.187709
0.142729
0.119284
0.174731
0.17946
0.171168
0.192856
0.17455
0.117091
0.160469
0.133563
0.0888238
0.151578
0.12055
0.147725
0.167392
0.204128
0.206684
0.173622
0.202292
0.167254
0.133201
0.0758694
0.0609859
0.078549
0.137778
0.115089
0.111795
0.161043
0.151724
0.143975
0.178217
0.138783
0.20246
0.214894
0.201957
0.203543
0.17696
0.202346
0.189435
0.198748
0.221386
0.22737
0.209286
0.206972
0.1698
0.199304
0.189928
0.204006
0.198777
0.153573
0.198337
0.153665
0.193025
0.184769
0.200196
0.195081
0.139614
0.169232
0.16162
0.0991876
0.163895
0.179919
0.124313
0.162765
0.210934
0.202168
0.153726
0.205703
0.214274
0.207797
0.158642
0.17959
0.142678
0.179707
0.178608
0.179452
0.140301
0.163154
0.132701
0.155953
0.166326
0.115579
0.14716
0.18855
0.201372
0.182059
0.179285
0.136146
0.143374
0.134147
0.0939849
0.117492
0.158793
0.133954
0.119881
0.147625
0.0818468
0.117326
0.153811
0.187469
0.176285
0.13685
0.166873
0.148984
0.118191
0.0881441
0.138952
0.121669
0.107805
0.161251
0.165975
0.140372
0.103289
0.144611
0.171292
0.168591
0.156603
0.181665
0.182582
0.126204
0.133608
0.181574
0.173432
0.113859
0.186151
0.20442
0.178982
0.191953
0.177003
0.147495
0.122887
0.16301
0.165615
0.177545
0.170003
0.149112
0.100559
0.148768
0.142844
0.17642
0.153699
0.18718
0.168114
0.115492
0.0819485
0.0814632
0.141772
0.168812
0.172019
0.133959
0.149219
0.10688
0.0978557
0.145818
0.165888
0.164869
0.143729
0.157254
0.153997
0.115608
0.150515
0.129924
0.0828287
0.131027
0.107017
0.148089
0.138657
0.0930691
0.1527
0.139737
0.0765164
0.108963
0.0665583
0.146914
0.173397
0.178099
0.190353
0.233966
0.23709
0.204793
0.227712
0.201879
0.233045
0.234843
0.199702
0.159974
0.200892
0.205107
0.16548
0.197104
0.250692
0.210311
0.233842
0.276995
0.294002
0.240467
0.296897
0.23241
0.20469
0.236704
0.265871