/*--------------------------------*- C++ -*----------------------------------*\
| =========                 |                                                 |
| \\      /  F ield         | OpenFOAM: The Open Source CFD Toolbox           |
|  \\    /   O peration     | Version:  v2012                                 |
|   \\  /    A nd           | Website:  www.openfoam.com                      |
|    \\/     M anipulation  |                                                 |
\*---------------------------------------------------------------------------*/
FoamFile
{
    version     2.0;
    format      ascii;
    class       volVectorField;
    location    "100";
    object      U;
}
// * * * * * * * * * * * * * * * * * * * * * * * * * * * * * * * * * * * * * //

dimensions      [0 1 -1 0 0 0 0];


internalField   nonuniform List<vector> 
65536
(
(0.156233 -0.137248 0)
(0.44609 -0.143791 0)
(0.722827 -0.14951 0)
(1.00038 -0.148883 0)
(1.28001 -0.142782 0)
(1.54632 -0.140852 0)
(1.82764 -0.13531 0)
(2.0943 -0.12713 0)
(2.36692 -0.125171 0)
(2.63456 -0.126447 0)
(2.88548 -0.136978 0)
(3.15845 -0.139466 0)
(3.40093 -0.124829 0)
(3.64473 -0.109612 0)
(3.87335 -0.106942 0)
(4.09677 -0.108379 0)
(4.31783 -0.103488 0)
(4.53099 -0.101507 0)
(4.74109 -0.0987447 0)
(4.92514 -0.0991391 0)
(5.10371 -0.105697 0)
(5.29448 -0.0927614 0)
(5.4473 -0.0780253 0)
(5.6094 -0.084976 0)
(5.78338 -0.086589 0)
(5.94887 -0.0654473 0)
(6.07055 -0.0525229 0)
(6.20111 -0.0637526 0)
(6.32991 -0.0676786 0)
(6.44452 -0.0588035 0)
(6.56078 -0.0545024 0)
(6.66943 -0.0455135 0)
(6.75107 -0.0331854 0)
(6.81236 -0.0411238 0)
(6.88893 -0.0449661 0)
(6.95405 -0.0316995 0)
(6.99968 -0.0209813 0)
(7.04884 -0.00949233 0)
(7.07176 -0.00666996 0)
(7.09974 -0.0131125 0)
(7.12762 -0.0144444 0)
(7.13565 -0.00459346 0)
(7.13639 0.00611373 0)
(7.12192 0.0125868 0)
(7.10313 0.01618 0)
(7.08926 0.00787077 0)
(7.07376 -0.000446292 0)
(7.05918 0.0103485 0)
(7.02238 0.0201721 0)
(6.98215 0.0267971 0)
(6.93087 0.0342275 0)
(6.87345 0.0282769 0)
(6.83595 0.0244799 0)
(6.77309 0.0216955 0)
(6.73131 0.0307027 0)
(6.65264 0.0383182 0)
(6.59131 0.032845 0)
(6.51328 0.0382345 0)
(6.43888 0.0418434 0)
(6.34822 0.0353125 0)
(6.27657 0.0359183 0)
(6.18881 0.0476327 0)
(6.09476 0.0516855 0)
(5.99941 0.0532263 0)
(5.90812 0.0546841 0)
(5.8026 0.0460024 0)
(5.71843 0.0412249 0)
(5.6223 0.0473839 0)
(5.52437 0.0359092 0)
(5.4622 0.0254068 0)
(5.38652 0.0397167 0)
(5.31027 0.0499344 0)
(5.21672 0.0435831 0)
(5.12624 0.0467475 0)
(5.02579 0.0550661 0)
(4.93516 0.0518265 0)
(4.84126 0.0520183 0)
(4.7479 0.0466503 0)
(4.65074 0.0371623 0)
(4.56394 0.0423911 0)
(4.46102 0.0494356 0)
(4.36505 0.0445174 0)
(4.27329 0.0441011 0)
(4.1882 0.0530278 0)
(4.08845 0.0540264 0)
(3.99619 0.0426684 0)
(3.91677 0.0339781 0)
(3.84563 0.0384305 0)
(3.75741 0.0479014 0)
(3.67468 0.0412613 0)
(3.58855 0.0345199 0)
(3.51045 0.0382269 0)
(3.42789 0.0351469 0)
(3.35735 0.0356906 0)
(3.27963 0.0471871 0)
(3.198 0.0462732 0)
(3.11588 0.0412124 0)
(3.04595 0.0410516 0)
(2.97096 0.0361304 0)
(2.90837 0.032918 0)
(2.83507 0.0306152 0)
(2.76428 0.0258301 0)
(2.70589 0.0285472 0)
(2.64353 0.0228399 0)
(2.60285 0.0197213 0)
(2.5465 0.0321312 0)
(2.48279 0.0429926 0)
(2.41008 0.0336162 0)
(2.35433 0.0234364 0)
(2.29489 0.0231472 0)
(2.23546 0.0281475 0)
(2.15996 0.0348776 0)
(2.11213 0.0335822 0)
(2.05373 0.0221107 0)
(2.01497 0.0104241 0)
(1.97328 0.0182308 0)
(1.92843 0.0305523 0)
(1.89747 0.0267669 0)
(1.86567 0.0169873 0)
(1.83451 0.00874431 0)
(1.80249 0.00950924 0)
(1.76537 0.0175641 0)
(1.71871 0.0226355 0)
(1.683 0.0292476 0)
(1.62948 0.0317153 0)
(1.5806 0.0276594 0)
(1.52963 0.0243569 0)
(1.48956 0.0136703 0)
(1.44817 0.0135878 0)
(1.41217 0.0279179 0)
(1.3655 0.0269599 0)
(1.32683 0.0176732 0)
(1.28883 0.0182157 0)
(1.24919 0.01757 0)
(1.22237 0.00964014 0)
(1.20688 0.00778745 0)
(1.19251 0.01072 0)
(1.16173 0.00978982 0)
(1.13616 0.0191067 0)
(1.09492 0.0269915 0)
(1.05984 0.0196544 0)
(1.02728 0.0147948 0)
(1.00365 0.0104404 0)
(0.980821 0.00428347 0)
(0.969212 0.00436619 0)
(0.953824 0.00409237 0)
(0.941528 0.00687176 0)
(0.913864 0.0139247 0)
(0.88637 0.0157151 0)
(0.86786 0.0229664 0)
(0.835843 0.0187956 0)
(0.820635 0.00495536 0)
(0.810188 -0.00173902 0)
(0.816269 -0.000547949 0)
(0.803008 0.0086216 0)
(0.785279 0.00733767 0)
(0.768149 0.00358961 0)
(0.759902 0.00535119 0)
(0.751718 0.00627538 0)
(0.729756 0.00917949 0)
(0.710638 0.00825892 0)
(0.685782 0.0144102 0)
(0.661172 0.0254901 0)
(0.619199 0.0180089 0)
(0.601528 0.00910971 0)
(0.583817 0.00562303 0)
(0.578212 0.00145572 0)
(0.579579 0.00087823 0)
(0.560064 0.00783712 0)
(0.547667 0.0196564 0)
(0.506125 0.015112 0)
(0.484796 0.0139462 0)
(0.457946 0.0176535 0)
(0.439949 0.0073989 0)
(0.444122 -0.000658244 0)
(0.434918 -0.00398739 0)
(0.431079 -0.00630987 0)
(0.435684 0.000796347 0)
(0.441822 0.00929233 0)
(0.442092 0.000540927 0)
(0.438724 -0.00727345 0)
(0.436109 -4.9771e-05 0)
(0.421797 0.00349957 0)
(0.420072 -0.000877073 0)
(0.424972 0.00281085 0)
(0.409898 0.015118 0)
(0.391248 0.0175278 0)
(0.374272 0.0133426 0)
(0.357733 0.00965041 0)
(0.344378 0.0020429 0)
(0.338178 -0.00139857 0)
(0.32753 -1.28022e-05 0)
(0.328638 -0.00253355 0)
(0.318534 -0.00334051 0)
(0.326829 -0.00251455 0)
(0.324067 -0.00346919 0)
(0.323032 0.00518453 0)
(0.304295 0.0205892 0)
(0.286269 0.0168864 0)
(0.270044 0.0053478 0)
(0.257965 -0.00145647 0)
(0.264386 -0.00622548 0)
(0.264116 -0.00997083 0)
(0.27659 -0.00713758 0)
(0.284317 0.0139876 0)
(0.258643 0.0183754 0)
(0.249884 0.00140337 0)
(0.242696 -0.00426348 0)
(0.235303 -0.0024808 0)
(0.229742 0.00458521 0)
(0.214907 0.00368906 0)
(0.225993 0.000856833 0)
(0.234542 0.00809122 0)
(0.231422 0.0103478 0)
(0.222 0.00602626 0)
(0.210279 -0.00218236 0)
(0.200817 -0.00471158 0)
(0.19134 0.00229862 0)
(0.178128 0.0133913 0)
(0.159589 0.00996574 0)
(0.154359 0.00112132 0)
(0.151622 0.00342401 0)
(0.131774 0.00110165 0)
(0.13118 -0.00496654 0)
(0.136196 -0.00655127 0)
(0.142024 0.00307092 0)
(0.150182 0.00580398 0)
(0.153808 -0.00711064 0)
(0.168265 -0.0072026 0)
(0.160645 -0.00500624 0)
(0.171912 -0.00862584 0)
(0.183011 -0.00575337 0)
(0.179304 0.0105314 0)
(0.167931 0.020941 0)
(0.146153 0.00888088 0)
(0.139313 0.00277398 0)
(0.123612 0.00695864 0)
(0.111622 -0.00251953 0)
(0.121701 -0.0083039 0)
(0.126902 -0.00452599 0)
(0.131729 -0.000228846 0)
(0.139201 0.00187722 0)
(0.133064 -0.0052445 0)
(0.134061 -0.00619788 0)
(0.142985 0.00342512 0)
(0.141988 0.014739 0)
(0.138073 0.0103651 0)
(0.135351 -0.00532487 0)
(0.131158 -0.00711244 0)
(0.130576 0.00372781 0)
(0.116568 0.0171329 0)
(0.0954945 0.00917056 0)
(0.105784 -0.00654407 0)
(0.100267 -0.0118617 0)
(0.114958 -0.00670963 0)
(0.126621 0.00852877 0)
(0.112527 0.0081896 0)
(0.110143 0.00115608 0)
(0.103938 -0.00115493 0)
(0.100453 -0.0048333 0)
(0.101408 0.00194424 0)
(0.101024 0.00939082 0)
(0.0835265 -0.00314864 0)
(0.0905912 -0.00774225 0)
(0.0823626 0.00122572 0)
(0.0881254 0.00030548 0)
(0.0898914 -0.00535453 0)
(0.090349 -0.00524019 0)
(0.09572 0.00247272 0)
(0.0986046 0.0038663 0)
(0.102937 -0.00676459 0)
(0.112146 -0.00899538 0)
(0.10577 0.00941688 0)
(0.086693 0.0143524 0)
(0.0676661 0.00521867 0)
(0.0554051 0.00522878 0)
(0.0538292 0.00168586 0)
(0.0491314 -0.0100284 0)
(0.0629837 -0.00746555 0)
(0.0644484 0.00206852 0)
(0.078333 0.00131477 0)
(0.0789069 -0.00236018 0)
(0.0773771 0.00814363 0)
(0.0562939 0.0112523 0)
(0.0553641 -0.00537211 0)
(0.0671483 -0.0137049 0)
(0.070949 -0.00609423 0)
(0.072278 0.00969205 0)
(0.0693607 0.00718871 0)
(0.0804472 -0.00144986 0)
(0.0684424 0.00368636 0)
(0.0783192 0.0017563 0)
(0.073152 -0.00497568 0)
(0.0725143 -0.000236112 0)
(0.0555558 0.0100374 0)
(0.0485373 0.00514451 0)
(0.0446491 0.000610867 0)
(0.0385156 0.00172985 0)
(0.0342205 -0.00413049 0)
(0.0458408 -0.00561457 0)
(0.0411148 0.00576941 0)
(0.0355418 0.00512647 0)
(0.0282749 0.00261249 0)
(0.0225243 0.00265154 0)
(0.0363108 -0.00747092 0)
(0.0600709 -0.0127122 0)
(0.0708132 0.000458675 0)
(0.0604242 0.00759784 0)
(0.0518614 0.00240268 0)
(0.0476637 0.000320777 0)
(0.0519283 -0.00377018 0)
(0.0573385 -0.0106812 0)
(0.0813091 -0.00571928 0)
(0.0711744 0.00334812 0)
(0.0812982 0.00474051 0)
(0.0746389 7.45672e-05 0)
(0.0648208 -0.000256865 0)
(0.0558477 0.00583213 0)
(0.0518527 0.0116745 0)
(0.0496772 0.0114823 0)
(0.040195 0.0024871 0)
(0.0397686 -0.00450044 0)
(0.0346168 -0.00257171 0)
(0.0288989 0.00639572 0)
(0.0307036 0.00250824 0)
(0.0256385 -0.0038677 0)
(0.0255291 -0.00448581 0)
(0.0268397 -0.00686785 0)
(0.0379046 -0.0106288 0)
(0.0709815 -0.00519872 0)
(0.0902826 0.00309238 0)
(0.0947159 -0.000270333 0)
(0.102094 -0.00854027 0)
(0.107766 -0.00344439 0)
(0.100343 0.00362724 0)
(0.0902525 0.00239718 0)
(0.0771298 0.00879237 0)
(0.0679093 0.0133832 0)
(0.0495 0.00760477 0)
(0.030029 0.00875262 0)
(0.0232943 0.00314687 0)
(0.016099 -0.00756049 0)
(0.0226531 -0.00759761 0)
(0.0237065 -0.00234014 0)
(0.0289736 0.00754388 0)
(0.0345932 0.0104559 0)
(0.0370492 -0.0034453 0)
(0.038873 -0.0103623 0)
(0.0539542 -0.00756513 0)
(0.06237 -0.00536329 0)
(0.0601356 0.00057851 0)
(0.0504564 0.0103234 0)
(0.0350681 0.0102042 0)
(0.0242623 -3.64684e-05 0)
(0.0251615 -0.00285796 0)
(0.0303493 -0.00541186 0)
(0.0310135 -0.0103245 0)
(0.0420877 -0.00380802 0)
(0.047845 0.00581695 0)
(0.0490416 0.00639061 0)
(0.0525025 0.00172855 0)
(0.0535851 -0.00147627 0)
(0.0495313 -0.000993192 0)
(0.0600667 -0.00525078 0)
(0.0689294 -0.00560785 0)
(0.072759 0.00211243 0)
(0.0732116 0.00244288 0)
(0.0717976 -0.00282669 0)
(0.0679385 -0.00458241 0)
(0.064065 -0.00371831 0)
(0.0628416 0.00180424 0)
(0.0619233 0.00559491 0)
(0.0762542 0.00482423 0)
(0.068289 -0.0016025 0)
(0.0753531 -0.00372589 0)
(0.0784041 -0.000778733 0)
(0.0771013 -0.000909071 0)
(0.0758702 -0.00184563 0)
(0.069461 -0.00205757 0)
(0.0706548 0.00637789 0)
(0.0526728 0.0133369 0)
(0.0486133 0.00758872 0)
(0.055308 0.00407907 0)
(0.0467963 0.00206411 0)
(0.0427385 -0.00813916 0)
(0.0516562 -0.00828314 0)
(0.0441674 0.00209727 0)
(0.0390707 0.00911398 0)
(0.0256855 0.00216914 0)
(0.0355379 -0.0105037 0)
(0.0438542 -0.00975012 0)
(0.0520396 -0.00147886 0)
(0.0782387 -0.00201218 0)
(0.0855683 -0.00663361 0)
(0.0919549 -0.0037341 0)
(0.0957332 -0.0025739 0)
(0.0893346 -0.000592469 0)
(0.0865928 0.00831611 0)
(0.0672594 0.0108961 0)
(0.0584029 0.0051556 0)
(0.0426258 0.00148108 0)
(0.0343528 0.00445964 0)
(0.0221471 0.00341801 0)
(0.0259785 -0.00626394 0)
(0.0344783 -0.00667656 0)
(0.0271595 -8.0147e-05 0)
(0.0277875 0.00196737 0)
(0.0285496 -0.000768576 0)
(0.0491947 -0.000834795 0)
(0.0604879 0.00220818 0)
(0.0654232 0.000622289 0)
(0.0682654 -0.00244945 0)
(0.0671598 -0.00503598 0)
(0.0630612 -0.0021297 0)
(0.054311 0.00944899 0)
(0.0332983 0.0115547 0)
(0.0370457 -0.00205583 0)
(0.0440208 -0.0110233 0)
(0.0552344 -0.00935766 0)
(0.0653689 0.00163313 0)
(0.0566978 0.00495989 0)
(0.0621151 -0.00287794 0)
(0.0602733 -0.00521735 0)
(0.0605162 -0.00315465 0)
(0.0634899 -0.00586146 0)
(0.0648051 -0.00401754 0)
(0.067473 0.00468704 0)
(0.0603215 0.0120699 0)
(0.0576381 0.00637214 0)
(0.0528486 0.000870588 0)
(0.0439232 0.00543192 0)
(0.0425516 0.00492648 0)
(0.0358452 -0.00172315 0)
(0.0404141 -0.00359017 0)
(0.0337776 -0.00125873 0)
(0.047174 -0.00253374 0)
(0.0443849 -0.00325768 0)
(0.0500637 0.00604735 0)
(0.041774 0.00811054 0)
(0.0411533 -0.00288038 0)
(0.0563488 -0.00429066 0)
(0.0529715 -0.00764233 0)
(0.0685086 -0.00654019 0)
(0.0616998 0.00206365 0)
(0.058551 0.00308017 0)
(0.0540173 -0.00220242 0)
(0.0605913 -0.00671115 0)
(0.0666463 -0.000543794 0)
(0.0713969 0.00509014 0)
(0.0601839 -0.00104885 0)
(0.0636022 -0.00957029 0)
(0.0686623 -0.0104272 0)
(0.0779514 -0.0040555 0)
(0.0796815 0.00485594 0)
(0.0819074 0.00493604 0)
(0.0821317 0.00127759 0)
(0.0792625 0.00962888 0)
(0.0647481 0.0107762 0)
(0.053513 -0.000816723 0)
(0.0457328 -0.0034286 0)
(0.0424171 -0.00113478 0)
(0.0427837 0.00148207 0)
(0.0270141 0.0120644 0)
(0.0202078 0.00990172 0)
(0.0106907 0.00156675 0)
(0.00401597 0.0024765 0)
(0.00547774 -0.00555649 0)
(0.0194296 -0.0104366 0)
(0.023111 -0.00979421 0)
(0.042573 -0.014506 0)
(0.0614602 -0.00676864 0)
(0.0809146 0.00110139 0)
(0.0748203 -0.00166161 0)
(0.07857 0.0069802 0)
(0.0729122 0.0120191 0)
(0.052896 0.00518194 0)
(0.0411696 0.00495112 0)
(0.026624 0.00077867 0)
(0.0158065 -0.00014666 0)
(0.00997014 0.00315089 0)
(0.00589649 0.00729872 0)
(0.000754796 0.0160262 0)
(-0.0057816 0.0148635 0)
(-0.0131039 -0.00125507 0)
(0.00337838 -0.0132369 0)
(0.0146774 -0.0115105 0)
(0.0138599 -0.00606662 0)
(0.0127748 -0.0110506 0)
(0.0407425 -0.0152826 0)
(0.0591679 -0.00206513 0)
(0.0488643 0.00182459 0)
(0.0594382 0.000583173 0)
(0.0684794 0.00946304 0)
(0.0572913 0.0118038 0)
(0.0457689 0.00744659 0)
(0.0378321 0.00766259 0)
(0.0160528 0.00466121 0)
(0.0105367 -0.00460402 0)
(0.00425191 -0.00636643 0)
(0.00178 -0.00428093 0)
(0.01008 -0.00187936 0)
(0.0134638 0.00743751 0)
(0.0172437 0.0132166 0)
(0.0027519 0.00713003 0)
(-0.00163535 0.000426462 0)
(-0.00988738 -0.000316452 0)
(-0.0252117 0.00146297 0)
(-0.0208919 -0.00559665 0)
(-0.0109327 -0.012474 0)
(-0.00278614 -0.00858423 0)
(0.00365603 -0.000765947 0)
(0.0020382 0.00745798 0)
(0.170913 -0.453156 0)
(0.467266 -0.423105 0)
(0.726572 -0.407115 0)
(0.977903 -0.409512 0)
(1.24578 -0.405551 0)
(1.50305 -0.408678 0)
(1.77555 -0.414859 0)
(2.06099 -0.414972 0)
(2.3598 -0.417167 0)
(2.64543 -0.394525 0)
(2.89437 -0.390128 0)
(3.13881 -0.378789 0)
(3.35674 -0.365259 0)
(3.61537 -0.366137 0)
(3.87518 -0.348999 0)
(4.11299 -0.339522 0)
(4.34722 -0.334668 0)
(4.57322 -0.325521 0)
(4.78733 -0.299976 0)
(4.96761 -0.267505 0)
(5.11089 -0.268088 0)
(5.27141 -0.255344 0)
(5.42815 -0.241366 0)
(5.60293 -0.255405 0)
(5.75992 -0.256699 0)
(5.92915 -0.225475 0)
(6.09664 -0.202714 0)
(6.2536 -0.198268 0)
(6.36432 -0.178012 0)
(6.45956 -0.173985 0)
(6.58299 -0.171974 0)
(6.68096 -0.146214 0)
(6.78312 -0.111343 0)
(6.84626 -0.0978957 0)
(6.87984 -0.0984147 0)
(6.9326 -0.0801613 0)
(6.96789 -0.0748171 0)
(7.03584 -0.0629065 0)
(7.08712 -0.0442994 0)
(7.12458 -0.0419804 0)
(7.13957 -0.0205103 0)
(7.12486 -0.00213232 0)
(7.13307 0.00986118 0)
(7.12432 0.0237834 0)
(7.12214 0.0194673 0)
(7.13095 0.0251517 0)
(7.0878 0.0339891 0)
(7.04517 0.0450681 0)
(7.01498 0.0608511 0)
(6.97528 0.0688858 0)
(6.94452 0.0785111 0)
(6.89789 0.070857 0)
(6.86502 0.0793319 0)
(6.78881 0.0861759 0)
(6.7263 0.092404 0)
(6.66252 0.103945 0)
(6.59951 0.108045 0)
(6.50792 0.115424 0)
(6.44735 0.124275 0)
(6.34774 0.128012 0)
(6.24859 0.124986 0)
(6.16016 0.134942 0)
(6.08235 0.138569 0)
(6.00176 0.134089 0)
(5.93686 0.143555 0)
(5.83348 0.145464 0)
(5.73096 0.141186 0)
(5.62802 0.149112 0)
(5.53094 0.126274 0)
(5.43821 0.114372 0)
(5.33491 0.114369 0)
(5.29109 0.12182 0)
(5.20446 0.142518 0)
(5.09163 0.14567 0)
(5.00803 0.137774 0)
(4.94095 0.133279 0)
(4.86059 0.136594 0)
(4.78627 0.143818 0)
(4.66397 0.147777 0)
(4.54427 0.147055 0)
(4.44387 0.150115 0)
(4.34899 0.1431 0)
(4.24333 0.133402 0)
(4.1691 0.131868 0)
(4.09787 0.139019 0)
(4.01618 0.129109 0)
(3.92892 0.117432 0)
(3.84246 0.121273 0)
(3.76211 0.123725 0)
(3.70087 0.127983 0)
(3.58382 0.13053 0)
(3.49288 0.123244 0)
(3.40767 0.119039 0)
(3.31785 0.113733 0)
(3.25061 0.113909 0)
(3.19842 0.118056 0)
(3.12275 0.111468 0)
(3.06546 0.104118 0)
(3.00439 0.101286 0)
(2.93856 0.102626 0)
(2.8604 0.113033 0)
(2.7617 0.102889 0)
(2.69284 0.0920559 0)
(2.63119 0.0795961 0)
(2.5756 0.0770607 0)
(2.51003 0.0874969 0)
(2.4743 0.0933851 0)
(2.43211 0.0940795 0)
(2.36617 0.0915316 0)
(2.289 0.0950446 0)
(2.20845 0.106801 0)
(2.12792 0.0878573 0)
(2.11213 0.0727535 0)
(2.06239 0.0748177 0)
(2.00355 0.0706915 0)
(1.92914 0.0685329 0)
(1.89968 0.0469919 0)
(1.90961 0.0369817 0)
(1.89419 0.0475993 0)
(1.85105 0.0553155 0)
(1.78401 0.0618805 0)
(1.72829 0.066948 0)
(1.67849 0.0608447 0)
(1.65625 0.0602407 0)
(1.63123 0.0711038 0)
(1.59293 0.0722656 0)
(1.54882 0.0671769 0)
(1.51135 0.067724 0)
(1.42996 0.0642583 0)
(1.40121 0.0553635 0)
(1.38809 0.0588164 0)
(1.34884 0.0601046 0)
(1.29996 0.0600956 0)
(1.26555 0.0498001 0)
(1.23477 0.0339074 0)
(1.20426 0.0231864 0)
(1.20022 0.0354918 0)
(1.15559 0.0480755 0)
(1.11525 0.0491203 0)
(1.10043 0.049745 0)
(1.08617 0.0488196 0)
(1.04994 0.0422727 0)
(1.03152 0.037014 0)
(0.98752 0.0314214 0)
(0.961119 0.0236808 0)
(0.944481 0.0248525 0)
(0.909936 0.0341832 0)
(0.881063 0.0421788 0)
(0.856121 0.0311399 0)
(0.853675 0.0286176 0)
(0.862491 0.0292923 0)
(0.850863 0.0216682 0)
(0.828229 0.00718818 0)
(0.825264 0.00929227 0)
(0.801231 0.0242665 0)
(0.789836 0.0293978 0)
(0.754454 0.0238197 0)
(0.745406 0.0134113 0)
(0.735014 0.0267017 0)
(0.698215 0.03431 0)
(0.682756 0.0379127 0)
(0.638846 0.0368232 0)
(0.64236 0.0432836 0)
(0.624327 0.0433181 0)
(0.606825 0.028116 0)
(0.586842 0.0185411 0)
(0.57437 0.00392478 0)
(0.575179 0.0179915 0)
(0.532095 0.0254732 0)
(0.542663 0.0356952 0)
(0.515572 0.0495616 0)
(0.483657 0.0361124 0)
(0.478107 0.0301716 0)
(0.47645 0.00985876 0)
(0.484779 0.00918505 0)
(0.45415 0.0206907 0)
(0.424994 0.00909523 0)
(0.414151 -0.00857318 0)
(0.442756 -0.0130733 0)
(0.468373 0.00507181 0)
(0.438745 0.0150609 0)
(0.41393 0.019035 0)
(0.394386 0.0135213 0)
(0.39077 -0.00194925 0)
(0.38373 0.00745617 0)
(0.377477 0.0183316 0)
(0.397399 0.0180332 0)
(0.401141 0.0201421 0)
(0.394031 0.0203807 0)
(0.38795 0.0177765 0)
(0.360333 0.0187075 0)
(0.338537 0.00995146 0)
(0.33808 0.0121845 0)
(0.300632 0.00634002 0)
(0.308525 -0.0019732 0)
(0.298116 0.00794831 0)
(0.279774 0.0148965 0)
(0.2828 0.0166162 0)
(0.309439 0.0175798 0)
(0.294917 0.0237366 0)
(0.271496 0.00760481 0)
(0.267821 0.000716947 0)
(0.248643 -0.00210318 0)
(0.235585 -0.0128296 0)
(0.248699 0.00387957 0)
(0.274444 0.0161429 0)
(0.274703 0.0143444 0)
(0.247162 0.019005 0)
(0.21738 0.0150289 0)
(0.203488 0.0156071 0)
(0.201138 -0.000458467 0)
(0.21313 -0.0206576 0)
(0.240243 -0.013607 0)
(0.264895 0.00171756 0)
(0.269374 0.0146502 0)
(0.25249 0.0226243 0)
(0.214541 0.0228502 0)
(0.183612 0.0194649 0)
(0.178215 0.0176503 0)
(0.188589 0.0131364 0)
(0.175353 0.00617208 0)
(0.170166 0.018717 0)
(0.144149 0.0189433 0)
(0.133024 0.000382477 0)
(0.125959 -0.00391116 0)
(0.122734 -0.0161868 0)
(0.174673 -0.0163036 0)
(0.184599 -0.00914757 0)
(0.18159 0.00260218 0)
(0.161097 0.00407201 0)
(0.154701 -0.0109249 0)
(0.146892 0.00108009 0)
(0.140225 0.00717525 0)
(0.177643 0.014737 0)
(0.178388 0.0218353 0)
(0.152605 0.0219754 0)
(0.131471 0.0228213 0)
(0.117162 0.00631503 0)
(0.106032 -0.00544349 0)
(0.100746 -0.00387738 0)
(0.101537 -0.0111335 0)
(0.127891 -0.00212498 0)
(0.112295 0.01105 0)
(0.0861864 -0.00331417 0)
(0.0945235 -0.0108149 0)
(0.118723 -0.00971701 0)
(0.169774 -0.00367551 0)
(0.160911 0.012123 0)
(0.124104 0.0121971 0)
(0.108426 0.0107254 0)
(0.110629 0.0183184 0)
(0.127354 0.00146563 0)
(0.138717 0.00177961 0)
(0.10833 0.00267182 0)
(0.0957981 -0.0199863 0)
(0.122644 -0.0058826 0)
(0.134307 0.00867193 0)
(0.133689 0.00793235 0)
(0.123785 0.0112418 0)
(0.104484 0.00846227 0)
(0.0927686 -0.00231722 0)
(0.117895 0.00913401 0)
(0.10716 0.013599 0)
(0.0839966 0.00822777 0)
(0.0640373 0.000332122 0)
(0.0865657 -0.00939976 0)
(0.0869826 0.00170731 0)
(0.0677695 -0.00257316 0)
(0.0756085 -0.0122954 0)
(0.098446 -0.0134815 0)
(0.114098 -0.00835621 0)
(0.0941879 0.00418913 0)
(0.0748853 0.014832 0)
(0.0907294 0.0223946 0)
(0.0696751 0.0252849 0)
(0.0497472 0.00765354 0)
(0.0646258 0.00406129 0)
(0.0425706 2.23023e-05 0)
(0.0320837 -0.00819152 0)
(0.0385429 -0.018519 0)
(0.0824778 -0.0164059 0)
(0.081862 0.00277512 0)
(0.0731804 0.0142042 0)
(0.0771748 0.0106293 0)
(0.0835468 -0.00530322 0)
(0.0709743 -0.00215632 0)
(0.0471998 0.00172124 0)
(0.0500778 -0.00781224 0)
(0.0943179 -0.014504 0)
(0.107149 0.00306018 0)
(0.0876368 -0.000433529 0)
(0.122191 -0.00547521 0)
(0.10504 0.0121459 0)
(0.0748763 0.0191953 0)
(0.0592234 0.0148731 0)
(0.0739286 0.00679297 0)
(0.0604512 0.0104965 0)
(0.0513262 0.00973557 0)
(0.0469566 -0.00219817 0)
(0.039804 1.4589e-05 0)
(0.0309303 0.00586724 0)
(0.0430696 0.00874446 0)
(0.0267452 0.0119907 0)
(0.0246676 -0.00876853 0)
(0.0503993 -0.0284806 0)
(0.0589135 -0.0198635 0)
(0.0582945 0.00163274 0)
(0.0638475 0.0127996 0)
(0.0547051 0.0122343 0)
(0.0461299 0.000752889 0)
(0.0522668 -0.00456329 0)
(0.0416731 -0.0176228 0)
(0.0558086 -0.00710626 0)
(0.0343465 -0.00254457 0)
(0.0726307 -0.00756757 0)
(0.0671146 0.0168011 0)
(0.0366261 0.0190721 0)
(0.0287764 0.00752029 0)
(0.0419598 -0.00550497 0)
(0.076999 0.000776051 0)
(0.075914 0.00807521 0)
(0.0670327 0.0111014 0)
(0.0373177 0.0147939 0)
(0.0275888 -0.0008857 0)
(0.0519279 0.00209883 0)
(0.0254995 0.0100272 0)
(0.0177254 0.00413884 0)
(0.00353278 -0.00443138 0)
(0.00312242 -0.0326639 0)
(0.0467072 -0.0464835 0)
(0.0945168 -0.0263954 0)
(0.122652 -0.0109536 0)
(0.116835 -0.00382061 0)
(0.0997443 0.00611583 0)
(0.0912857 0.0145423 0)
(0.0762528 0.0217002 0)
(0.0483098 0.0138334 0)
(0.0752098 0.0153276 0)
(0.0588383 0.0312878 0)
(0.0362391 0.0187518 0)
(0.0517551 0.0112783 0)
(0.0269504 0.00972478 0)
(0.00588015 0.000221293 0)
(0.00135584 -0.00393576 0)
(0.0150555 -0.0184481 0)
(0.0647154 -0.0182023 0)
(0.087611 -0.000953082 0)
(0.0584634 -0.00638381 0)
(0.0644266 -0.0167859 0)
(0.0642493 -0.00136435 0)
(0.046699 0.0104905 0)
(0.0383799 0.0144139 0)
(0.0447378 0.0157209 0)
(0.0322952 0.010369 0)
(0.023642 -0.00296764 0)
(0.0310721 -0.000316008 0)
(0.00666723 -0.000828941 0)
(-0.00231718 -0.0123866 0)
(0.0255436 -0.0120302 0)
(0.0483439 -0.0103229 0)
(0.0634432 -0.00535735 0)
(0.067007 0.0050587 0)
(0.0544097 -0.00424563 0)
(0.0756256 -0.0127215 0)
(0.0704587 -0.0057549 0)
(0.0742175 -0.00487231 0)
(0.0904505 0.000267811 0)
(0.0828286 0.00982853 0)
(0.0640395 0.0143289 0)
(0.0379727 0.0107247 0)
(0.0312214 0.00225616 0)
(0.0424722 -0.0166838 0)
(0.0914499 -0.00856947 0)
(0.0834322 0.0049142 0)
(0.0787648 -0.00382495 0)
(0.0795884 0.00113333 0)
(0.0743406 0.00566465 0)
(0.0668135 0.011793 0)
(0.0466328 0.00912451 0)
(0.0443713 0.0127116 0)
(0.0413483 0.0105596 0)
(0.0696022 -0.00903682 0)
(0.0858951 -0.00180782 0)
(0.0885539 0.0108596 0)
(0.0713869 0.00307087 0)
(0.048646 0.00703933 0)
(0.0263146 0.0104257 0)
(0.040366 0.00897697 0)
(0.0443433 0.00122486 0)
(0.0470629 -0.00757977 0)
(0.0314972 -0.00638439 0)
(0.0341893 -0.0324123 0)
(0.0962843 -0.0307863 0)
(0.0946961 -0.00703289 0)
(0.0934228 -0.00657368 0)
(0.0969424 0.00475374 0)
(0.0732407 0.00903104 0)
(0.0726049 0.0125206 0)
(0.070126 0.0159895 0)
(0.0706759 0.017928 0)
(0.0416067 0.0212021 0)
(0.0252137 0.0145017 0)
(0.0180678 0.00395209 0)
(0.0288488 -0.00703126 0)
(0.0134142 0.00532406 0)
(-0.00463357 0.00625902 0)
(0.00153823 -0.00319633 0)
(0.0111534 -0.0201198 0)
(0.0455616 -0.030263 0)
(0.0734307 -0.0175274 0)
(0.0946954 -0.00793499 0)
(0.100305 0.00119992 0)
(0.0858938 0.0107521 0)
(0.0545701 0.0148061 0)
(0.0392926 0.0196048 0)
(0.0399449 0.00559946 0)
(0.0607729 -0.0098182 0)
(0.0536462 -0.0079625 0)
(0.0458305 -0.0128985 0)
(0.0583711 -0.00362239 0)
(0.0627535 -0.00233767 0)
(0.0748673 -0.000615431 0)
(0.0494622 0.00615302 0)
(0.045273 -0.00040546 0)
(0.0406642 0.00075772 0)
(0.0270428 -0.000968579 0)
(0.030673 -0.000979678 0)
(0.044525 -0.00279276 0)
(0.0765132 0.000630421 0)
(0.0603679 0.0125597 0)
(0.0526143 0.00498002 0)
(0.0637366 0.00338118 0)
(0.0562858 0.00420802 0)
(0.0479614 0.00663676 0)
(0.0286865 -0.00513835 0)
(0.0556623 -0.00813687 0)
(0.0417501 0.000111397 0)
(0.0459509 -0.00359938 0)
(0.0696402 -4.74917e-05 0)
(0.0721012 -0.0127172 0)
(0.0860792 -0.00860612 0)
(0.076084 -0.00603208 0)
(0.0715604 -0.00413236 0)
(0.0588306 0.00618267 0)
(0.0560497 0.00234496 0)
(0.0535445 -0.00201062 0)
(0.0478639 -0.0086175 0)
(0.0472615 -0.0124825 0)
(0.0712472 -0.00118104 0)
(0.062674 0.00704315 0)
(0.0491605 -0.00102341 0)
(0.02963 -0.00543705 0)
(0.0275921 -0.00898378 0)
(0.0407052 -0.0109183 0)
(0.0731751 -0.0094108 0)
(0.0777272 -0.000890357 0)
(0.078424 0.00540065 0)
(0.0941136 0.0126043 0)
(0.0845951 0.0175843 0)
(0.0494334 0.0122827 0)
(0.0452443 0.00191645 0)
(0.0386889 0.0121812 0)
(0.0191925 0.00887414 0)
(0.0498569 0.00525116 0)
(0.0335559 0.0133546 0)
(0.0246636 0.00169503 0)
(0.0359189 -0.0106236 0)
(0.0241188 -0.00836552 0)
(0.0185938 -0.0137772 0)
(0.0267903 -0.0240596 0)
(0.0301074 -0.031104 0)
(0.077653 -0.0139276 0)
(0.0631342 0.00484524 0)
(0.060104 -0.0036186 0)
(0.0879098 0.015165 0)
(0.0581263 0.0280391 0)
(0.0371607 0.0224816 0)
(0.0144492 0.0260105 0)
(-0.0248521 0.0175393 0)
(-0.0291037 0.00710174 0)
(-0.0284486 0.00193439 0)
(-0.0108533 -0.00437801 0)
(0.0344816 -0.00202464 0)
(0.0475636 -0.0088567 0)
(0.053265 -0.0161306 0)
(0.0376654 8.30715e-05 0)
(0.0108468 0.00628179 0)
(-0.00127033 -0.0164487 0)
(0.0021214 -0.0324738 0)
(0.013474 -0.00657721 0)
(0.0101399 -0.00327205 0)
(0.0203945 -0.0209723 0)
(0.0535582 -0.00863192 0)
(0.0699855 0.0102048 0)
(0.0706458 0.0107876 0)
(0.0683371 0.0212706 0)
(0.0465631 0.0216896 0)
(0.033044 0.0152967 0)
(-0.00510385 0.0144916 0)
(-0.0268979 -0.00213548 0)
(-0.0199308 -0.0102184 0)
(-0.0125762 -0.0146375 0)
(0.0381305 -0.00305785 0)
(0.0457427 0.0117431 0)
(0.0414162 0.0125833 0)
(0.0146422 0.0243233 0)
(-0.0111357 0.00958708 0)
(0.00436475 -0.00829241 0)
(-0.00738498 -0.00624279 0)
(-0.0192832 -0.00621007 0)
(-0.0228463 -0.00403575 0)
(-0.0125443 -0.00144034 0)
(0.165244 -0.778821 0)
(0.453472 -0.703109 0)
(0.716669 -0.66442 0)
(0.98384 -0.671505 0)
(1.25852 -0.670988 0)
(1.52465 -0.675122 0)
(1.79351 -0.696974 0)
(2.07447 -0.714205 0)
(2.35827 -0.715869 0)
(2.63352 -0.667423 0)
(2.89884 -0.636176 0)
(3.14182 -0.607472 0)
(3.37468 -0.60709 0)
(3.63137 -0.633668 0)
(3.88267 -0.611399 0)
(4.13545 -0.586186 0)
(4.36868 -0.569458 0)
(4.58339 -0.547021 0)
(4.79108 -0.499338 0)
(4.97276 -0.428939 0)
(5.12542 -0.415907 0)
(5.2905 -0.415377 0)
(5.45306 -0.413938 0)
(5.62338 -0.422058 0)
(5.77283 -0.418486 0)
(5.94151 -0.406975 0)
(6.12372 -0.381685 0)
(6.2759 -0.335881 0)
(6.38589 -0.277213 0)
(6.48546 -0.281217 0)
(6.59037 -0.279259 0)
(6.67583 -0.248546 0)
(6.78078 -0.200271 0)
(6.85391 -0.140651 0)
(6.88311 -0.132932 0)
(6.93981 -0.121751 0)
(6.97859 -0.12753 0)
(7.03763 -0.130313 0)
(7.09598 -0.0961748 0)
(7.12791 -0.0660286 0)
(7.13369 -0.0138119 0)
(7.12369 0.00309856 0)
(7.14009 0.00779762 0)
(7.13328 0.0257463 0)
(7.13424 0.0104514 0)
(7.1426 0.0443728 0)
(7.09531 0.087901 0)
(7.04911 0.0871145 0)
(7.01948 0.0945552 0)
(6.98908 0.10208 0)
(6.96113 0.114465 0)
(6.9111 0.111328 0)
(6.8706 0.137772 0)
(6.80119 0.163934 0)
(6.72874 0.159656 0)
(6.6663 0.167115 0)
(6.60147 0.190549 0)
(6.50398 0.193063 0)
(6.44666 0.20539 0)
(6.34667 0.23548 0)
(6.2478 0.224215 0)
(6.15746 0.215107 0)
(6.08498 0.212144 0)
(6.00965 0.200959 0)
(5.94035 0.225588 0)
(5.83351 0.253339 0)
(5.72749 0.248687 0)
(5.63157 0.249786 0)
(5.53485 0.229035 0)
(5.43486 0.225033 0)
(5.32623 0.190257 0)
(5.27287 0.182996 0)
(5.18669 0.245657 0)
(5.08191 0.24418 0)
(5.0034 0.207051 0)
(4.93509 0.199932 0)
(4.86285 0.208293 0)
(4.78825 0.245179 0)
(4.65843 0.28138 0)
(4.5363 0.263696 0)
(4.43591 0.246716 0)
(4.34453 0.244719 0)
(4.24056 0.225044 0)
(4.16524 0.199128 0)
(4.09269 0.208704 0)
(4.01398 0.213185 0)
(3.92871 0.209851 0)
(3.8386 0.206508 0)
(3.76456 0.191357 0)
(3.6946 0.220948 0)
(3.57593 0.244147 0)
(3.48246 0.214775 0)
(3.39788 0.211322 0)
(3.3128 0.194797 0)
(3.24275 0.167678 0)
(3.19183 0.175395 0)
(3.12174 0.175474 0)
(3.06372 0.15923 0)
(3.00751 0.16445 0)
(2.9405 0.178126 0)
(2.85889 0.208742 0)
(2.76162 0.194191 0)
(2.68624 0.159301 0)
(2.62844 0.14 0)
(2.56968 0.141714 0)
(2.50453 0.134171 0)
(2.4648 0.122395 0)
(2.42099 0.143668 0)
(2.36284 0.167987 0)
(2.28064 0.18077 0)
(2.20414 0.189184 0)
(2.13542 0.13034 0)
(2.11491 0.099816 0)
(2.05671 0.130908 0)
(2.00082 0.144041 0)
(1.94214 0.123026 0)
(1.90087 0.050186 0)
(1.8975 0.0324762 0)
(1.87402 0.077563 0)
(1.82851 0.120591 0)
(1.76508 0.132591 0)
(1.71327 0.124512 0)
(1.66493 0.096341 0)
(1.63907 0.0774048 0)
(1.616 0.0963544 0)
(1.58125 0.109525 0)
(1.54103 0.106163 0)
(1.49992 0.133472 0)
(1.42739 0.124304 0)
(1.39841 0.0699271 0)
(1.3861 0.0783571 0)
(1.35202 0.105421 0)
(1.30676 0.102152 0)
(1.27796 0.0845823 0)
(1.23529 0.0716771 0)
(1.19713 0.0435056 0)
(1.19503 0.0615281 0)
(1.15276 0.0949335 0)
(1.11561 0.0751513 0)
(1.09811 0.0573373 0)
(1.08964 0.0708271 0)
(1.06101 0.0697709 0)
(1.03616 0.0737377 0)
(0.989748 0.07494 0)
(0.957847 0.0488242 0)
(0.951509 0.0548172 0)
(0.914207 0.0703772 0)
(0.888887 0.0686729 0)
(0.864564 0.0433816 0)
(0.848745 0.0170139 0)
(0.86404 0.0226711 0)
(0.850386 0.0404237 0)
(0.828775 0.0254235 0)
(0.822246 0.0283373 0)
(0.798139 0.0459744 0)
(0.777335 0.0571703 0)
(0.744269 0.0512895 0)
(0.732096 0.0270659 0)
(0.710872 0.0550275 0)
(0.677555 0.062814 0)
(0.667201 0.0707094 0)
(0.627743 0.0570625 0)
(0.629819 0.0416954 0)
(0.626342 0.054571 0)
(0.614412 0.0473678 0)
(0.596182 0.0389347 0)
(0.573115 0.0148523 0)
(0.565491 0.0446832 0)
(0.5277 0.041641 0)
(0.533568 0.0370076 0)
(0.523262 0.0765138 0)
(0.496956 0.0543284 0)
(0.490397 0.0281681 0)
(0.495671 0.00290061 0)
(0.50487 0.0253288 0)
(0.469086 0.0596232 0)
(0.449446 0.0370057 0)
(0.429167 -0.0127746 0)
(0.429754 -0.0417245 0)
(0.448946 0.00799178 0)
(0.424307 0.0499734 0)
(0.408496 0.045114 0)
(0.39118 0.0282167 0)
(0.380178 0.00982224 0)
(0.360412 0.0153245 0)
(0.359907 0.00113486 0)
(0.392251 -0.00601093 0)
(0.395751 0.0175447 0)
(0.393727 0.0235067 0)
(0.390493 0.0376928 0)
(0.36395 0.049221 0)
(0.343203 0.0246536 0)
(0.337241 0.0371518 0)
(0.296531 0.0260209 0)
(0.303031 -0.000482048 0)
(0.292992 0.0257976 0)
(0.277189 0.0203365 0)
(0.284509 -0.00846144 0)
(0.304448 0.00425429 0)
(0.295454 0.0432435 0)
(0.269293 0.0249484 0)
(0.262129 0.0161113 0)
(0.25203 0.021471 0)
(0.226171 -0.00766991 0)
(0.236692 -0.0259685 0)
(0.268694 -0.00761236 0)
(0.269909 0.0282862 0)
(0.250349 0.052094 0)
(0.221883 0.0395611 0)
(0.217953 0.0199374 0)
(0.221264 -0.00611245 0)
(0.214581 -0.0392859 0)
(0.23253 -0.0450624 0)
(0.255704 -0.0196391 0)